
Predictions were generated on 23-Aug-2019 at 12:41:53 using AeroDyn_Interface_Subs
 AeroDyn


     Time           	RtSpeed   	RtAeroFxh 	RtAeroFyh 	RtAeroFzh 	RtAeroMxh 	RtAeroMyh 	RtAeroMzh 	RtTSR     	RtAeroCp  	RtAeroPwr 
      (s)           	(rpm)     	(N)       	(N)       	(N)       	(N-m)     	(N-m)     	(N-m)     	(-)       	(-)       	(W)       
         0.0000	 1.130E+01	 5.936E+05	 2.313E-10	-1.074E-10	 3.102E+06	-4.993E-08	 3.565E-08	 7.448E+00	 4.815E-01	 3.670E+06
         0.0200	 1.130E+01	 5.936E+05	-1.633E-11	-7.571E-11	 3.102E+06	 1.133E-08	 2.277E-08	 7.448E+00	 4.815E-01	 3.670E+06
         0.0400	 1.130E+01	 5.680E+05	 1.956E-11	 3.143E-11	 2.940E+06	 4.647E-09	-6.866E-09	 7.448E+00	 4.564E-01	 3.479E+06
         0.0400	 1.130E+01	 5.680E+05	 6.615E-11	 3.757E-11	 2.940E+06	-1.991E-08	-2.787E-09	 7.448E+00	 4.564E-01	 3.479E+06
         0.0800	 1.130E+01	 5.680E+05	 6.562E-02	 1.424E-01	 2.940E+06	-1.486E+01	 6.672E+01	 7.448E+00	 4.564E-01	 3.479E+06
         0.1000	 1.130E+01	 5.680E+05	 1.332E-01	-3.129E-01	 2.940E+06	-1.812E+00	 7.541E+01	 7.448E+00	 4.564E-01	 3.479E+06
         0.1000	 1.130E+01	 5.680E+05	 1.332E-01	-3.129E-01	 2.940E+06	-1.812E+00	 7.541E+01	 7.448E+00	 4.564E-01	 3.479E+06
         0.1400	 1.130E+01	 5.680E+05	 5.512E-02	 2.248E-01	 2.940E+06	-1.509E+01	 5.421E+01	 7.448E+00	 4.564E-01	 3.479E+06
         0.1600	 1.130E+01	 5.680E+05	 1.224E-01	-2.292E-01	 2.940E+06	-2.067E+00	 6.325E+01	 7.448E+00	 4.564E-01	 3.479E+06
         0.1600	 1.130E+01	 5.680E+05	 1.224E-01	-2.292E-01	 2.940E+06	-2.067E+00	 6.325E+01	 7.448E+00	 4.564E-01	 3.479E+06
         0.2000	 1.130E+01	 5.680E+05	 4.517E-02	 2.835E-01	 2.940E+06	-1.543E+01	 4.625E+01	 7.448E+00	 4.564E-01	 3.479E+06
         0.2200	 1.130E+01	 5.680E+05	 1.164E-01	-1.805E-01	 2.940E+06	-2.400E+00	 5.686E+01	 7.448E+00	 4.564E-01	 3.479E+06
         0.2200	 1.130E+01	 5.680E+05	 1.164E-01	-1.805E-01	 2.940E+06	-2.400E+00	 5.686E+01	 7.448E+00	 4.564E-01	 3.479E+06
         0.2600	 1.130E+01	 5.680E+05	 3.877E-02	 3.194E-01	 2.940E+06	-1.575E+01	 4.191E+01	 7.448E+00	 4.564E-01	 3.479E+06
         0.2800	 1.130E+01	 5.680E+05	 1.132E-01	-1.502E-01	 2.940E+06	-2.720E+00	 5.325E+01	 7.448E+00	 4.564E-01	 3.479E+06
         0.2800	 1.130E+01	 5.680E+05	 1.132E-01	-1.502E-01	 2.940E+06	-2.720E+00	 5.325E+01	 7.448E+00	 4.564E-01	 3.479E+06
         0.3200	 1.130E+01	 5.680E+05	 3.422E-02	 3.431E-01	 2.940E+06	-1.600E+01	 3.920E+01	 7.448E+00	 4.564E-01	 3.479E+06
         0.3400	 1.130E+01	 5.680E+05	 1.116E-01	-1.301E-01	 2.940E+06	-2.945E+00	 5.106E+01	 7.448E+00	 4.564E-01	 3.479E+06
         0.3400	 1.130E+01	 5.680E+05	 1.116E-01	-1.301E-01	 2.940E+06	-2.945E+00	 5.106E+01	 7.448E+00	 4.564E-01	 3.479E+06
         0.3800	 1.130E+01	 5.680E+05	 3.044E-02	 3.605E-01	 2.940E+06	-1.628E+01	 3.754E+01	 7.448E+00	 4.564E-01	 3.479E+06
         0.4000	 1.130E+01	 5.680E+05	 1.107E-01	-1.159E-01	 2.940E+06	-3.197E+00	 4.972E+01	 7.448E+00	 4.564E-01	 3.479E+06
         0.4000	 1.130E+01	 5.680E+05	 1.107E-01	-1.159E-01	 2.940E+06	-3.197E+00	 4.972E+01	 7.448E+00	 4.564E-01	 3.479E+06
         0.4400	 1.130E+01	 5.680E+05	 2.741E-02	 3.732E-01	 2.940E+06	-1.651E+01	 3.640E+01	 7.448E+00	 4.564E-01	 3.479E+06
         0.4600	 1.130E+01	 5.680E+05	 1.105E-01	-1.060E-01	 2.940E+06	-3.436E+00	 4.882E+01	 7.448E+00	 4.564E-01	 3.479E+06
         0.4600	 1.130E+01	 5.680E+05	 1.105E-01	-1.060E-01	 2.940E+06	-3.436E+00	 4.882E+01	 7.448E+00	 4.564E-01	 3.479E+06
         0.4800	 1.130E+01	 5.680E+05	-5.286E-01	 1.924E+00	 2.940E+06	 5.204E+01	-3.174E+02	 7.448E+00	 4.564E-01	 3.479E+06
         0.5200	 1.130E+01	 5.680E+05	 1.717E-01	 4.858E-02	 2.940E+06	-2.156E+01	 1.161E+02	 7.448E+00	 4.564E-01	 3.479E+06
         0.5400	 1.130E+01	 5.680E+05	 1.371E-01	-1.306E-01	 2.940E+06	-3.911E+00	 5.585E+01	 7.448E+00	 4.564E-01	 3.479E+06
         0.5600	 1.130E+01	 5.680E+05	-1.762E-02	 2.413E-01	 2.940E+06	 1.310E+00	-3.025E+01	 7.448E+00	 4.564E-01	 3.479E+06
         0.5600	 1.130E+01	 5.680E+05	-1.762E-02	 2.413E-01	 2.940E+06	 1.310E+00	-3.025E+01	 7.448E+00	 4.564E-01	 3.479E+06
         0.5800	 1.130E+01	 5.680E+05	-5.906E-01	 2.068E+00	 2.940E+06	 5.615E+01	-3.424E+02	 7.448E+00	 4.564E-01	 3.479E+06
         0.6000	 1.130E+01	 5.680E+05	-5.317E-01	 2.191E+00	 2.940E+06	 3.821E+01	-2.697E+02	 7.448E+00	 4.564E-01	 3.479E+06
         0.6400	 1.130E+01	 5.680E+05	 1.969E-01	 3.553E-02	 2.940E+06	-2.310E+01	 1.237E+02	 7.448E+00	 4.564E-01	 3.479E+06
         0.6600	 1.130E+01	 5.680E+05	 1.294E-01	-5.895E-02	 2.940E+06	-3.864E+00	 4.619E+01	 7.448E+00	 4.564E-01	 3.479E+06
         0.6800	 1.130E+01	 5.680E+05	-3.491E-02	 3.204E-01	 2.940E+06	 2.212E+00	-4.161E+01	 7.448E+00	 4.564E-01	 3.479E+06
         0.7000	 1.130E+01	 5.680E+05	-6.686E-02	 3.737E-01	 2.940E+06	 2.647E+00	-5.231E+01	 7.448E+00	 4.564E-01	 3.479E+06
         0.7000	 1.130E+01	 5.680E+05	-6.686E-02	 3.737E-01	 2.940E+06	 2.647E+00	-5.231E+01	 7.448E+00	 4.564E-01	 3.479E+06
         0.7200	 1.130E+01	 5.680E+05	-6.337E-01	 2.123E+00	 2.940E+06	 6.126E+01	-3.504E+02	 7.448E+00	 4.564E-01	 3.479E+06
         0.7600	 1.130E+01	 5.680E+05	 1.717E-01	 7.846E-02	 2.940E+06	-2.456E+01	 1.178E+02	 7.448E+00	 4.564E-01	 3.479E+06
         0.7800	 1.130E+01	 5.680E+05	 1.402E-01	-1.099E-01	 2.940E+06	-5.147E+00	 5.594E+01	 7.448E+00	 4.564E-01	 3.479E+06
         0.8000	 1.130E+01	 5.680E+05	-2.666E-02	 2.691E-01	 2.940E+06	 1.982E+00	-3.297E+01	 7.448E+00	 4.564E-01	 3.479E+06
         0.8200	 1.130E+01	 5.680E+05	-6.145E-02	 3.330E-01	 2.940E+06	 2.677E+00	-4.576E+01	 7.448E+00	 4.564E-01	 3.479E+06
         0.8200	 1.130E+01	 5.680E+05	-6.145E-02	 3.330E-01	 2.940E+06	 2.677E+00	-4.576E+01	 7.448E+00	 4.564E-01	 3.479E+06
         0.8400	 1.130E+01	 5.680E+05	-6.594E-01	 2.119E+00	 2.940E+06	 6.571E+01	-3.510E+02	 7.448E+00	 4.564E-01	 3.479E+06
         0.8800	 1.130E+01	 5.680E+05	 2.082E-01	-2.462E-01	 2.940E+06	 6.281E+01	 2.502E+01	 7.448E+00	 4.564E-01	 3.479E+06
         0.9000	 1.130E+01	 5.680E+05	-3.772E-01	 2.678E-01	 2.940E+06	 6.984E+01	-6.598E+01	 7.448E+00	 4.564E-01	 3.479E+06
         0.9200	 1.130E+01	 5.680E+05	-6.231E-02	 2.407E-01	 2.940E+06	 4.824E+00	-3.625E+01	 7.448E+00	 4.564E-01	 3.479E+06
         0.9400	 1.130E+01	 5.680E+05	 3.179E-02	 1.959E-01	 2.940E+06	-9.157E+00	-2.373E+01	 7.448E+00	 4.564E-01	 3.479E+06
         0.9400	 1.130E+01	 5.680E+05	 3.179E-02	 1.959E-01	 2.940E+06	-9.157E+00	-2.373E+01	 7.448E+00	 4.564E-01	 3.479E+06
         0.9600	 1.130E+01	 5.680E+05	 1.832E+00	-4.640E-01	 2.940E+06	-2.898E+02	 1.176E+02	 7.448E+00	 4.564E-01	 3.479E+06
         1.0000	 1.130E+01	 5.680E+05	-2.418E-01	 5.778E-02	 2.940E+06	 1.291E+02	-8.370E+01	 7.448E+00	 4.564E-01	 3.479E+06
         1.0200	 1.130E+01	 5.680E+05	-3.479E-01	 1.678E-01	 2.940E+06	 6.537E+01	-5.759E+01	 7.448E+00	 4.564E-01	 3.479E+06
         1.0400	 1.130E+01	 5.680E+05	 8.078E-02	 4.677E-02	 2.940E+06	-1.234E+01	-5.832E+00	 7.448E+00	 4.564E-01	 3.479E+06
         1.0600	 1.130E+01	 5.680E+05	 1.717E-01	 1.459E-02	 2.940E+06	-2.501E+01	 4.435E+00	 7.448E+00	 4.564E-01	 3.479E+06
         1.0800	 1.130E+01	 5.680E+05	 1.592E-01	 1.378E-02	 2.940E+06	-2.228E+01	 4.135E+00	 7.448E+00	 4.564E-01	 3.479E+06
         1.1000	 1.130E+01	 5.680E+05	 1.331E-01	 1.751E-02	 2.940E+06	-1.813E+01	 2.596E+00	 7.448E+00	 4.564E-01	 3.479E+06
         1.1200	 1.130E+01	 5.680E+05	 1.103E-01	 2.036E-02	 2.940E+06	-1.472E+01	 1.358E+00	 7.448E+00	 4.564E-01	 3.479E+06
         1.1400	 1.130E+01	 5.680E+05	 9.220E-02	 2.194E-02	 2.940E+06	-1.211E+01	 4.992E-01	 7.448E+00	 4.564E-01	 3.479E+06
         1.1400	 1.130E+01	 5.680E+05	 9.220E-02	 2.194E-02	 2.940E+06	-1.211E+01	 4.992E-01	 7.448E+00	 4.564E-01	 3.479E+06
         1.1600	 1.130E+01	 5.680E+05	 1.828E+00	-5.599E-01	 2.940E+06	-2.854E+02	 1.287E+02	 7.448E+00	 4.564E-01	 3.479E+06
         1.1800	 1.130E+01	 5.680E+05	 1.902E+00	-6.925E-01	 2.940E+06	-2.174E+02	 1.030E+02	 7.448E+00	 4.564E-01	 3.479E+06
         1.2000	 1.130E+01	 5.680E+05	 1.543E+00	-6.266E-01	 2.940E+06	-1.493E+02	 6.129E+01	 7.448E+00	 4.564E-01	 3.479E+06
         1.2200	 1.130E+01	 5.680E+05	 1.520E+00	-6.390E-01	 2.940E+06	-1.455E+02	 5.892E+01	 7.448E+00	 4.564E-01	 3.479E+06
         1.2600	 1.130E+01	 5.680E+05	-7.726E-02	-1.425E-01	 2.940E+06	 1.081E+02	-5.320E+01	 7.448E+00	 4.564E-01	 3.479E+06
         1.2800	 1.130E+01	 5.680E+05	-1.012E-01	-4.083E-02	 2.940E+06	 3.437E+01	-2.389E+01	 7.448E+00	 4.564E-01	 3.479E+06
         1.3000	 1.130E+01	 5.680E+05	 2.940E-01	-1.257E-01	 2.940E+06	-3.815E+01	 2.042E+01	 7.448E+00	 4.564E-01	 3.479E+06
         1.3200	 1.130E+01	 5.680E+05	 3.488E-01	-1.303E-01	 2.940E+06	-4.579E+01	 2.567E+01	 7.448E+00	 4.564E-01	 3.479E+06
         1.3400	 1.130E+01	 5.680E+05	 3.080E-01	-1.108E-01	 2.940E+06	-3.923E+01	 2.186E+01	 7.448E+00	 4.564E-01	 3.479E+06
         1.3600	 1.130E+01	 5.680E+05	 2.597E-01	-9.091E-02	 2.940E+06	-3.218E+01	 1.765E+01	 7.448E+00	 4.564E-01	 3.479E+06
         1.3800	 1.130E+01	 5.680E+05	 2.192E-01	-7.478E-02	 2.940E+06	-2.653E+01	 1.429E+01	 7.448E+00	 4.564E-01	 3.479E+06
         1.4000	 1.130E+01	 5.680E+05	 1.868E-01	-6.208E-02	 2.940E+06	-2.214E+01	 1.171E+01	 7.448E+00	 4.564E-01	 3.479E+06
         1.4000	 1.130E+01	 5.680E+05	 1.868E-01	-6.208E-02	 2.940E+06	-2.214E+01	 1.171E+01	 7.448E+00	 4.564E-01	 3.479E+06
         1.4200	 1.130E+01	 5.680E+05	 1.881E+00	-5.843E-01	 2.940E+06	-2.902E+02	 1.299E+02	 7.448E+00	 4.564E-01	 3.479E+06
         1.4400	 1.130E+01	 5.680E+05	 1.947E+00	-7.046E-01	 2.940E+06	-2.224E+02	 1.051E+02	 7.448E+00	 4.564E-01	 3.479E+06
         1.4600	 1.130E+01	 5.680E+05	 1.589E+00	-6.416E-01	 2.940E+06	-1.543E+02	 6.485E+01	 7.448E+00	 4.564E-01	 3.479E+06
         1.5000	 1.130E+01	 5.680E+05	-9.216E-02	-1.561E-01	 2.940E+06	 1.117E+02	-5.046E+01	 7.448E+00	 4.564E-01	 3.479E+06
         1.5200	 1.130E+01	 5.680E+05	-1.122E-01	-5.719E-02	 2.940E+06	 3.756E+01	-2.264E+01	 7.448E+00	 4.564E-01	 3.479E+06
         1.5400	 1.130E+01	 5.680E+05	 2.827E-01	-1.333E-01	 2.940E+06	-3.562E+01	 2.000E+01	 7.448E+00	 4.564E-01	 3.479E+06
         1.5600	 1.130E+01	 5.680E+05	 3.412E-01	-1.369E-01	 2.940E+06	-4.401E+01	 2.532E+01	 7.448E+00	 4.564E-01	 3.479E+06
         1.5800	 1.130E+01	 5.680E+05	 3.042E-01	-1.183E-01	 2.940E+06	-3.805E+01	 2.186E+01	 7.448E+00	 4.564E-01	 3.479E+06
         1.6000	 1.130E+01	 5.680E+05	 2.587E-01	-9.940E-02	 2.940E+06	-3.142E+01	 1.794E+01	 7.448E+00	 4.564E-01	 3.479E+06
         1.6200	 1.130E+01	 5.680E+05	 2.203E-01	-8.381E-02	 2.940E+06	-2.608E+01	 1.477E+01	 7.448E+00	 4.564E-01	 3.479E+06
         1.6400	 1.130E+01	 5.680E+05	 1.894E-01	-7.134E-02	 2.940E+06	-2.191E+01	 1.231E+01	 7.448E+00	 4.564E-01	 3.479E+06
         1.6600	 1.130E+01	 5.680E+05	 1.644E-01	-6.127E-02	 2.940E+06	-1.862E+01	 1.038E+01	 7.448E+00	 4.564E-01	 3.479E+06
         1.6600	 1.130E+01	 5.680E+05	 1.644E-01	-6.127E-02	 2.940E+06	-1.862E+01	 1.038E+01	 7.448E+00	 4.564E-01	 3.479E+06
         1.6800	 1.130E+01	 5.680E+05	 1.856E+00	-5.445E-01	 2.940E+06	-2.873E+02	 1.224E+02	 7.448E+00	 4.564E-01	 3.479E+06
         1.7000	 1.130E+01	 5.680E+05	 1.929E+00	-6.635E-01	 2.940E+06	-2.205E+02	 9.956E+01	 7.448E+00	 4.564E-01	 3.479E+06
         1.7200	 1.130E+01	 5.680E+05	 1.578E+00	-6.095E-01	 2.940E+06	-1.530E+02	 6.131E+01	 7.448E+00	 4.564E-01	 3.479E+06
         1.7600	 1.130E+01	 5.680E+05	-9.361E-02	-1.632E-01	 2.940E+06	 1.130E+02	-4.762E+01	 7.448E+00	 4.564E-01	 3.479E+06
         1.7800	 1.130E+01	 5.680E+05	-1.149E-01	-6.497E-02	 2.940E+06	 3.844E+01	-2.133E+01	 7.448E+00	 4.564E-01	 3.479E+06
         1.8000	 1.130E+01	 5.680E+05	 2.793E-01	-1.323E-01	 2.940E+06	-3.524E+01	 1.952E+01	 7.448E+00	 4.564E-01	 3.479E+06
         1.8200	 1.130E+01	 5.680E+05	 3.382E-01	-1.346E-01	 2.940E+06	-4.378E+01	 2.463E+01	 7.448E+00	 4.564E-01	 3.479E+06
         1.8400	 1.130E+01	 5.680E+05	 3.020E-01	-1.168E-01	 2.940E+06	-3.788E+01	 2.133E+01	 7.448E+00	 4.564E-01	 3.479E+06
         1.8600	 1.130E+01	 5.680E+05	 2.572E-01	-9.878E-02	 2.940E+06	-3.128E+01	 1.757E+01	 7.448E+00	 4.564E-01	 3.479E+06
         1.8800	 1.130E+01	 5.680E+05	 2.193E-01	-8.393E-02	 2.940E+06	-2.597E+01	 1.453E+01	 7.448E+00	 4.564E-01	 3.479E+06
         1.9000	 1.130E+01	 5.680E+05	 1.889E-01	-7.206E-02	 2.940E+06	-2.183E+01	 1.217E+01	 7.448E+00	 4.564E-01	 3.479E+06
         1.9000	 1.130E+01	 5.680E+05	 1.889E-01	-7.206E-02	 2.940E+06	-2.183E+01	 1.217E+01	 7.448E+00	 4.564E-01	 3.479E+06
         1.9200	 1.130E+01	 5.680E+05	 1.889E+00	-5.222E-01	 2.940E+06	-2.926E+02	 1.191E+02	 7.448E+00	 4.564E-01	 3.479E+06
         1.9400	 1.130E+01	 5.680E+05	 1.962E+00	-6.390E-01	 2.940E+06	-2.250E+02	 9.730E+01	 7.448E+00	 4.564E-01	 3.479E+06
         1.9600	 1.130E+01	 5.680E+05	 1.610E+00	-5.910E-01	 2.940E+06	-1.566E+02	 6.012E+01	 7.448E+00	 4.564E-01	 3.479E+06
         2.0000	 1.130E+01	 5.680E+05	-7.963E-02	-1.736E-01	 2.940E+06	 1.133E+02	-4.473E+01	 7.448E+00	 4.564E-01	 3.479E+06
         2.0200	 1.130E+01	 5.680E+05	-1.046E-01	-7.449E-02	 2.940E+06	 3.806E+01	-1.988E+01	 7.448E+00	 4.564E-01	 3.479E+06
         2.0400	 1.130E+01	 5.680E+05	 2.911E-01	-1.337E-01	 2.940E+06	-3.667E+01	 1.975E+01	 7.448E+00	 4.564E-01	 3.479E+06
         2.0600	 1.130E+01	 5.680E+05	 3.494E-01	-1.343E-01	 2.940E+06	-4.525E+01	 2.466E+01	 7.448E+00	 4.564E-01	 3.479E+06
         2.0800	 1.130E+01	 5.680E+05	 3.120E-01	-1.168E-01	 2.940E+06	-3.915E+01	 2.138E+01	 7.448E+00	 4.564E-01	 3.479E+06
         2.1000	 1.130E+01	 5.680E+05	 2.661E-01	-9.921E-02	 2.940E+06	-3.238E+01	 1.767E+01	 7.448E+00	 4.564E-01	 3.479E+06
         2.1200	 1.130E+01	 5.680E+05	 2.274E-01	-8.474E-02	 2.940E+06	-2.691E+01	 1.466E+01	 7.448E+00	 4.564E-01	 3.479E+06
         2.1400	 1.130E+01	 5.680E+05	 1.961E-01	-7.308E-02	 2.940E+06	-2.265E+01	 1.232E+01	 7.448E+00	 4.564E-01	 3.479E+06
         2.1600	 1.130E+01	 5.680E+05	 1.708E-01	-6.360E-02	 2.940E+06	-1.929E+01	 1.048E+01	 7.448E+00	 4.564E-01	 3.479E+06
         2.1800	 1.130E+01	 5.680E+05	 1.500E-01	-5.578E-02	 2.940E+06	-1.659E+01	 9.004E+00	 7.448E+00	 4.564E-01	 3.479E+06
         2.2000	 1.130E+01	 5.680E+05	 1.326E-01	-4.926E-02	 2.940E+06	-1.439E+01	 7.810E+00	 7.448E+00	 4.564E-01	 3.479E+06
         2.2200	 1.130E+01	 5.680E+05	 1.179E-01	-4.375E-02	 2.940E+06	-1.258E+01	 6.829E+00	 7.448E+00	 4.564E-01	 3.479E+06
         2.2400	 1.130E+01	 5.680E+05	 1.054E-01	-3.901E-02	 2.940E+06	-1.107E+01	 5.997E+00	 7.448E+00	 4.564E-01	 3.479E+06
         2.2600	 1.130E+01	 5.680E+05	 9.463E-02	-3.494E-02	 2.940E+06	-9.795E+00	 5.302E+00	 7.448E+00	 4.564E-01	 3.479E+06
         2.2800	 1.130E+01	 5.680E+05	 8.530E-02	-3.138E-02	 2.940E+06	-8.725E+00	 4.711E+00	 7.448E+00	 4.564E-01	 3.479E+06
         2.3000	 1.130E+01	 5.680E+05	 7.714E-02	-2.830E-02	 2.940E+06	-7.793E+00	 4.207E+00	 7.448E+00	 4.564E-01	 3.479E+06
         2.3000	 1.130E+01	 5.680E+05	 7.714E-02	-2.830E-02	 2.940E+06	-7.793E+00	 4.207E+00	 7.448E+00	 4.564E-01	 3.479E+06
         2.3200	 1.130E+01	 5.680E+05	 1.857E+00	-4.412E-01	 2.940E+06	-2.930E+02	 1.068E+02	 7.448E+00	 4.564E-01	 3.479E+06
         2.3400	 1.130E+01	 5.680E+05	 1.955E+00	-5.645E-01	 2.940E+06	-2.252E+02	 8.779E+01	 7.448E+00	 4.564E-01	 3.479E+06
         2.3600	 1.130E+01	 5.680E+05	 1.607E+00	-5.323E-01	 2.940E+06	-1.555E+02	 5.269E+01	 7.448E+00	 4.564E-01	 3.479E+06
         2.3800	 1.130E+01	 5.680E+05	 1.598E+00	-5.475E-01	 2.940E+06	-1.528E+02	 5.076E+01	 7.448E+00	 4.564E-01	 3.479E+06
         2.4000	 1.130E+01	 5.680E+05	 1.680E+00	-5.755E-01	 2.940E+06	-1.642E+02	 5.627E+01	 7.448E+00	 4.564E-01	 3.479E+06
         2.4200	 1.130E+01	 5.680E+05	 1.764E+00	-6.013E-01	 2.940E+06	-1.755E+02	 6.177E+01	 7.448E+00	 4.564E-01	 3.479E+06
         2.4400	 1.130E+01	 5.680E+05	 1.836E+00	-6.225E-01	 2.940E+06	-1.848E+02	 6.624E+01	 7.448E+00	 4.564E-01	 3.479E+06
         2.4600	 1.130E+01	 5.680E+05	 1.896E+00	-6.397E-01	 2.940E+06	-1.924E+02	 6.980E+01	 7.448E+00	 4.564E-01	 3.479E+06
         2.5000	 1.130E+01	 5.680E+05	 1.541E-01	-2.668E-01	 2.940E+06	 9.002E+01	-2.623E+01	 7.448E+00	 4.564E-01	 3.479E+06
         2.5200	 1.130E+01	 5.680E+05	 8.166E-02	-1.490E-01	 2.940E+06	 1.611E+01	-6.393E+00	 7.448E+00	 4.564E-01	 3.479E+06
         2.5400	 1.130E+01	 5.680E+05	 4.640E-01	-1.824E-01	 2.940E+06	-5.910E+01	 2.956E+01	 7.448E+00	 4.564E-01	 3.479E+06
         2.5600	 1.130E+01	 5.680E+05	 4.986E-01	-1.716E-01	 2.940E+06	-6.460E+01	 3.243E+01	 7.448E+00	 4.564E-01	 3.479E+06
         2.5800	 1.130E+01	 5.680E+05	 4.381E-01	-1.479E-01	 2.940E+06	-5.523E+01	 2.778E+01	 7.448E+00	 4.564E-01	 3.479E+06
         2.6000	 1.130E+01	 5.680E+05	 3.730E-01	-1.258E-01	 2.940E+06	-4.575E+01	 2.303E+01	 7.448E+00	 4.564E-01	 3.479E+06
         2.6200	 1.130E+01	 5.680E+05	 3.186E-01	-1.078E-01	 2.940E+06	-3.814E+01	 1.920E+01	 7.448E+00	 4.564E-01	 3.479E+06
         2.6400	 1.130E+01	 5.680E+05	 2.746E-01	-9.325E-02	 2.940E+06	-3.217E+01	 1.619E+01	 7.448E+00	 4.564E-01	 3.479E+06
         2.6600	 1.130E+01	 5.680E+05	 2.388E-01	-8.132E-02	 2.940E+06	-2.742E+01	 1.381E+01	 7.448E+00	 4.564E-01	 3.479E+06
         2.6800	 1.130E+01	 5.680E+05	 2.092E-01	-7.141E-02	 2.940E+06	-2.359E+01	 1.189E+01	 7.448E+00	 4.564E-01	 3.479E+06
         2.7000	 1.130E+01	 5.680E+05	 1.844E-01	-6.307E-02	 2.940E+06	-2.046E+01	 1.032E+01	 7.448E+00	 4.564E-01	 3.479E+06
         2.7200	 1.130E+01	 5.680E+05	 1.637E-01	-5.601E-02	 2.940E+06	-1.792E+01	 9.015E+00	 7.448E+00	 4.564E-01	 3.479E+06
         2.7400	 1.130E+01	 5.680E+05	 1.459E-01	-5.005E-02	 2.940E+06	-1.574E+01	 7.931E+00	 7.448E+00	 4.564E-01	 3.479E+06
         2.7600	 1.130E+01	 5.680E+05	 1.305E-01	-4.484E-02	 2.940E+06	-1.390E+01	 7.013E+00	 7.448E+00	 4.564E-01	 3.479E+06
         2.7800	 1.130E+01	 5.680E+05	 1.171E-01	-4.025E-02	 2.940E+06	-1.235E+01	 6.228E+00	 7.448E+00	 4.564E-01	 3.479E+06
         2.8000	 1.130E+01	 5.680E+05	 1.055E-01	-3.632E-02	 2.940E+06	-1.101E+01	 5.555E+00	 7.448E+00	 4.564E-01	 3.479E+06
         2.8000	 1.130E+01	 5.680E+05	 1.055E-01	-3.632E-02	 2.940E+06	-1.101E+01	 5.555E+00	 7.448E+00	 4.564E-01	 3.479E+06
         2.8200	 1.130E+01	 5.680E+05	-1.317E+00	-1.262E+00	 2.940E+06	 2.441E+02	 1.792E+02	 7.448E+00	 4.564E-01	 3.479E+06
         2.8400	 1.130E+01	 5.680E+05	-1.484E+00	-1.264E+00	 2.940E+06	 1.888E+02	 1.336E+02	 7.448E+00	 4.564E-01	 3.479E+06
         2.8600	 1.130E+01	 5.680E+05	-1.253E+00	-9.903E-01	 2.940E+06	 1.190E+02	 9.605E+01	 7.448E+00	 4.564E-01	 3.479E+06
         2.8800	 1.130E+01	 5.680E+05	-1.262E+00	-9.681E-01	 2.940E+06	 1.163E+02	 9.430E+01	 7.448E+00	 4.564E-01	 3.479E+06
         2.9000	 1.130E+01	 5.680E+05	-1.336E+00	-1.013E+00	 2.940E+06	 1.280E+02	 9.983E+01	 7.448E+00	 4.564E-01	 3.479E+06
         2.9200	 1.130E+01	 5.680E+05	-1.408E+00	-1.062E+00	 2.940E+06	 1.396E+02	 1.053E+02	 7.448E+00	 4.564E-01	 3.479E+06
         2.9400	 1.130E+01	 5.680E+05	-1.468E+00	-1.103E+00	 2.940E+06	 1.489E+02	 1.097E+02	 7.448E+00	 4.564E-01	 3.479E+06
         2.9600	 1.130E+01	 5.680E+05	-1.517E+00	-1.137E+00	 2.940E+06	 1.564E+02	 1.132E+02	 7.448E+00	 4.564E-01	 3.479E+06
         3.0000	 1.130E+01	 5.680E+05	-2.292E-01	 3.402E-02	 2.940E+06	-7.884E+01	-5.554E+01	 7.448E+00	 4.564E-01	 3.479E+06
         3.0200	 1.130E+01	 5.680E+05	-1.022E-01	 2.249E-02	 2.940E+06	-2.069E+01	-8.628E+00	 7.448E+00	 4.564E-01	 3.479E+06
         3.0400	 1.130E+01	 5.680E+05	-3.545E-01	-2.629E-01	 2.940E+06	 5.100E+01	 3.026E+01	 7.448E+00	 4.564E-01	 3.479E+06
         3.0600	 1.130E+01	 5.680E+05	-3.702E-01	-2.967E-01	 2.940E+06	 5.688E+01	 3.294E+01	 7.448E+00	 4.564E-01	 3.479E+06
         3.0800	 1.130E+01	 5.680E+05	-3.201E-01	-2.621E-01	 2.940E+06	 4.831E+01	 2.816E+01	 7.448E+00	 4.564E-01	 3.479E+06
         3.1000	 1.130E+01	 5.680E+05	-2.684E-01	-2.228E-01	 2.940E+06	 3.956E+01	 2.337E+01	 7.448E+00	 4.564E-01	 3.479E+06
         3.1200	 1.130E+01	 5.680E+05	-2.257E-01	-1.898E-01	 2.940E+06	 3.256E+01	 1.952E+01	 7.448E+00	 4.564E-01	 3.479E+06
         3.1400	 1.130E+01	 5.680E+05	-1.915E-01	-1.632E-01	 2.940E+06	 2.712E+01	 1.649E+01	 7.448E+00	 4.564E-01	 3.479E+06
         3.1600	 1.130E+01	 5.680E+05	-1.639E-01	-1.415E-01	 2.940E+06	 2.283E+01	 1.408E+01	 7.448E+00	 4.564E-01	 3.479E+06
         3.1800	 1.130E+01	 5.680E+05	-1.414E-01	-1.237E-01	 2.940E+06	 1.941E+01	 1.214E+01	 7.448E+00	 4.564E-01	 3.479E+06
         3.2000	 1.130E+01	 5.680E+05	-1.227E-01	-1.088E-01	 2.940E+06	 1.665E+01	 1.056E+01	 7.448E+00	 4.564E-01	 3.479E+06
         3.2200	 1.130E+01	 5.680E+05	-1.073E-01	-9.629E-02	 2.940E+06	 1.438E+01	 9.233E+00	 7.448E+00	 4.564E-01	 3.479E+06
         3.2400	 1.130E+01	 5.680E+05	-9.428E-02	-8.569E-02	 2.940E+06	 1.251E+01	 8.135E+00	 7.448E+00	 4.564E-01	 3.479E+06
         3.2600	 1.130E+01	 5.680E+05	-8.301E-02	-7.657E-02	 2.940E+06	 1.092E+01	 7.209E+00	 7.448E+00	 4.564E-01	 3.479E+06
         3.2800	 1.130E+01	 5.680E+05	-7.341E-02	-6.867E-02	 2.940E+06	 9.575E+00	 6.406E+00	 7.448E+00	 4.564E-01	 3.479E+06
         3.3000	 1.130E+01	 5.680E+05	-6.519E-02	-6.174E-02	 2.940E+06	 8.449E+00	 5.720E+00	 7.448E+00	 4.564E-01	 3.479E+06
         3.3200	 1.130E+01	 5.680E+05	-5.803E-02	-5.564E-02	 2.940E+06	 7.473E+00	 5.120E+00	 7.448E+00	 4.564E-01	 3.479E+06
         3.3200	 1.130E+01	 5.680E+05	-5.803E-02	-5.564E-02	 2.940E+06	 7.473E+00	 5.120E+00	 7.448E+00	 4.564E-01	 3.479E+06
         3.3400	 1.130E+01	 5.680E+05	-1.348E+00	-1.279E+00	 2.940E+06	 2.427E+02	 1.813E+02	 7.448E+00	 4.564E-01	 3.479E+06
         3.3600	 1.130E+01	 5.680E+05	-1.497E+00	-1.288E+00	 2.940E+06	 1.904E+02	 1.360E+02	 7.448E+00	 4.564E-01	 3.479E+06
         3.3800	 1.130E+01	 5.680E+05	-1.279E+00	-1.018E+00	 2.940E+06	 1.240E+02	 9.763E+01	 7.448E+00	 4.564E-01	 3.479E+06
         3.4000	 1.130E+01	 5.680E+05	-1.281E+00	-9.985E-01	 2.940E+06	 1.206E+02	 9.607E+01	 7.448E+00	 4.564E-01	 3.479E+06
         3.4200	 1.130E+01	 5.680E+05	-1.343E+00	-1.045E+00	 2.940E+06	 1.307E+02	 1.020E+02	 7.448E+00	 4.564E-01	 3.479E+06
         3.4400	 1.130E+01	 5.680E+05	-1.404E+00	-1.096E+00	 2.940E+06	 1.407E+02	 1.078E+02	 7.448E+00	 4.564E-01	 3.479E+06
         3.4600	 1.130E+01	 5.680E+05	-1.455E+00	-1.139E+00	 2.940E+06	 1.489E+02	 1.126E+02	 7.448E+00	 4.564E-01	 3.479E+06
         3.5000	 1.130E+01	 5.680E+05	-2.550E-01	 3.778E-02	 2.940E+06	-7.243E+01	-5.924E+01	 7.448E+00	 4.564E-01	 3.479E+06
         3.5200	 1.130E+01	 5.680E+05	-1.302E-01	 2.956E-02	 2.940E+06	-1.759E+01	-1.089E+01	 7.448E+00	 4.564E-01	 3.479E+06
         3.5400	 1.130E+01	 5.680E+05	-3.623E-01	-2.590E-01	 2.940E+06	 5.073E+01	 3.000E+01	 7.448E+00	 4.564E-01	 3.479E+06
         3.5600	 1.130E+01	 5.680E+05	-3.752E-01	-2.943E-01	 2.940E+06	 5.637E+01	 3.306E+01	 7.448E+00	 4.564E-01	 3.479E+06
         3.5800	 1.130E+01	 5.680E+05	-3.270E-01	-2.605E-01	 2.940E+06	 4.820E+01	 2.827E+01	 7.448E+00	 4.564E-01	 3.479E+06
         3.6000	 1.130E+01	 5.680E+05	-2.773E-01	-2.217E-01	 2.940E+06	 3.982E+01	 2.341E+01	 7.448E+00	 4.564E-01	 3.479E+06
         3.6200	 1.130E+01	 5.680E+05	-2.360E-01	-1.892E-01	 2.940E+06	 3.309E+01	 1.951E+01	 7.448E+00	 4.564E-01	 3.479E+06
         3.6400	 1.130E+01	 5.680E+05	-2.027E-01	-1.629E-01	 2.940E+06	 2.782E+01	 1.645E+01	 7.448E+00	 4.564E-01	 3.479E+06
         3.6600	 1.130E+01	 5.680E+05	-1.756E-01	-1.415E-01	 2.940E+06	 2.364E+01	 1.403E+01	 7.448E+00	 4.564E-01	 3.479E+06
         3.6800	 1.130E+01	 5.680E+05	-1.533E-01	-1.239E-01	 2.940E+06	 2.029E+01	 1.207E+01	 7.448E+00	 4.564E-01	 3.479E+06
         3.7000	 1.130E+01	 5.680E+05	-1.347E-01	-1.092E-01	 2.940E+06	 1.756E+01	 1.047E+01	 7.448E+00	 4.564E-01	 3.479E+06
         3.7200	 1.130E+01	 5.680E+05	-1.192E-01	-9.687E-02	 2.940E+06	 1.531E+01	 9.151E+00	 7.448E+00	 4.564E-01	 3.479E+06
         3.7400	 1.130E+01	 5.680E+05	-1.059E-01	-8.629E-02	 2.940E+06	 1.343E+01	 8.048E+00	 7.448E+00	 4.564E-01	 3.479E+06
         3.7600	 1.130E+01	 5.680E+05	-9.452E-02	-7.726E-02	 2.940E+06	 1.185E+01	 7.119E+00	 7.448E+00	 4.564E-01	 3.479E+06
         3.7800	 1.130E+01	 5.680E+05	-8.459E-02	-6.938E-02	 2.940E+06	 1.051E+01	 6.332E+00	 7.448E+00	 4.564E-01	 3.479E+06
         3.8000	 1.130E+01	 5.680E+05	-7.604E-02	-6.250E-02	 2.940E+06	 9.344E+00	 5.645E+00	 7.448E+00	 4.564E-01	 3.479E+06
         3.8200	 1.130E+01	 5.680E+05	-6.860E-02	-5.652E-02	 2.940E+06	 8.352E+00	 5.055E+00	 7.448E+00	 4.564E-01	 3.479E+06
         3.8200	 1.130E+01	 5.680E+05	-6.860E-02	-5.652E-02	 2.940E+06	 8.352E+00	 5.055E+00	 7.448E+00	 4.564E-01	 3.479E+06
         3.8400	 1.130E+01	 5.680E+05	-1.315E+00	-1.338E+00	 2.940E+06	 2.383E+02	 1.918E+02	 7.448E+00	 4.564E-01	 3.479E+06
         3.8600	 1.130E+01	 5.680E+05	-1.466E+00	-1.355E+00	 2.940E+06	 1.878E+02	 1.444E+02	 7.448E+00	 4.564E-01	 3.479E+06
         3.8800	 1.130E+01	 5.680E+05	-1.261E+00	-1.079E+00	 2.940E+06	 1.229E+02	 1.036E+02	 7.448E+00	 4.564E-01	 3.479E+06
         3.9000	 1.130E+01	 5.680E+05	-1.266E+00	-1.061E+00	 2.940E+06	 1.197E+02	 1.022E+02	 7.448E+00	 4.564E-01	 3.479E+06
         3.9200	 1.130E+01	 5.680E+05	-1.328E+00	-1.113E+00	 2.940E+06	 1.299E+02	 1.088E+02	 7.448E+00	 4.564E-01	 3.479E+06
         3.9400	 1.130E+01	 5.680E+05	-1.390E+00	-1.169E+00	 2.940E+06	 1.400E+02	 1.153E+02	 7.448E+00	 4.564E-01	 3.479E+06
         3.9600	 1.130E+01	 5.680E+05	-1.442E+00	-1.216E+00	 2.940E+06	 1.483E+02	 1.206E+02	 7.448E+00	 4.564E-01	 3.479E+06
         4.0000	 1.130E+01	 5.680E+05	-2.680E-01	 2.971E-02	 2.940E+06	-7.091E+01	-6.359E+01	 7.448E+00	 4.564E-01	 3.479E+06
         4.0200	 1.130E+01	 5.680E+05	-1.391E-01	 2.664E-02	 2.940E+06	-1.675E+01	-1.199E+01	 7.448E+00	 4.564E-01	 3.479E+06
         4.0400	 1.130E+01	 5.680E+05	-3.633E-01	-2.766E-01	 2.940E+06	 5.132E+01	 3.251E+01	 7.448E+00	 4.564E-01	 3.479E+06
         4.0600	 1.130E+01	 5.680E+05	-3.750E-01	-3.133E-01	 2.940E+06	 5.691E+01	 3.588E+01	 7.448E+00	 4.564E-01	 3.479E+06
         4.0800	 1.130E+01	 5.680E+05	-3.277E-01	-2.774E-01	 2.940E+06	 4.872E+01	 3.067E+01	 7.448E+00	 4.564E-01	 3.479E+06
         4.0800	 1.130E+01	 5.680E+05	-3.277E-01	-2.774E-01	 2.940E+06	 4.872E+01	 3.067E+01	 7.448E+00	 4.564E-01	 3.479E+06
         4.1200	 1.130E+01	 5.680E+05	-3.993E-01	-2.253E-01	 2.940E+06	-1.654E+01	-2.907E+01	 7.448E+00	 4.564E-01	 3.479E+06
         4.1200	 1.130E+01	 5.680E+05	-3.993E-01	-2.253E-01	 2.940E+06	-1.654E+01	-2.907E+01	 7.448E+00	 4.564E-01	 3.479E+06
         4.1600	 1.130E+01	 5.680E+05	-3.505E-01	-1.573E-01	 2.940E+06	-2.856E+01	-3.680E+01	 7.448E+00	 4.564E-01	 3.479E+06
         4.1600	 1.130E+01	 5.680E+05	-3.505E-01	-1.573E-01	 2.940E+06	-2.856E+01	-3.680E+01	 7.448E+00	 4.564E-01	 3.479E+06
         4.2000	 1.130E+01	 5.680E+05	-3.765E-01	-1.805E-01	 2.940E+06	-2.406E+01	-3.420E+01	 7.448E+00	 4.564E-01	 3.479E+06
         4.2000	 1.130E+01	 5.680E+05	-3.765E-01	-1.805E-01	 2.940E+06	-2.406E+01	-3.420E+01	 7.448E+00	 4.564E-01	 3.479E+06
         4.2400	 1.130E+01	 5.680E+05	-3.945E-01	-1.971E-01	 2.940E+06	-2.130E+01	-3.273E+01	 7.448E+00	 4.564E-01	 3.479E+06
         4.2400	 1.130E+01	 5.680E+05	-3.945E-01	-1.971E-01	 2.940E+06	-2.130E+01	-3.273E+01	 7.448E+00	 4.564E-01	 3.479E+06
         4.2800	 1.130E+01	 5.680E+05	-4.073E-01	-2.085E-01	 2.940E+06	-1.977E+01	-3.197E+01	 7.448E+00	 4.564E-01	 3.479E+06
         4.2800	 1.130E+01	 5.680E+05	-4.073E-01	-2.085E-01	 2.940E+06	-1.977E+01	-3.197E+01	 7.448E+00	 4.564E-01	 3.479E+06
         4.3200	 1.130E+01	 5.680E+05	-4.165E-01	-2.171E-01	 2.940E+06	-1.884E+01	-3.159E+01	 7.448E+00	 4.564E-01	 3.479E+06
         4.3200	 1.130E+01	 5.680E+05	-4.165E-01	-2.171E-01	 2.940E+06	-1.884E+01	-3.159E+01	 7.448E+00	 4.564E-01	 3.479E+06
         4.3600	 1.130E+01	 5.680E+05	-4.235E-01	-2.239E-01	 2.940E+06	-1.816E+01	-3.141E+01	 7.448E+00	 4.564E-01	 3.479E+06
         4.3600	 1.130E+01	 5.680E+05	-4.235E-01	-2.239E-01	 2.940E+06	-1.816E+01	-3.141E+01	 7.448E+00	 4.564E-01	 3.479E+06
         4.4000	 1.130E+01	 5.680E+05	-4.296E-01	-2.301E-01	 2.940E+06	-1.770E+01	-3.140E+01	 7.448E+00	 4.564E-01	 3.479E+06
         4.4000	 1.130E+01	 5.680E+05	-4.296E-01	-2.301E-01	 2.940E+06	-1.770E+01	-3.140E+01	 7.448E+00	 4.564E-01	 3.479E+06
         4.4400	 1.130E+01	 5.680E+05	-1.848E-01	-5.788E-02	 2.940E+06	 2.352E+01	 9.560E+01	 7.448E+00	 4.564E-01	 3.479E+06
         4.4400	 1.130E+01	 5.680E+05	-1.848E-01	-5.788E-02	 2.940E+06	 2.352E+01	 9.560E+01	 7.448E+00	 4.564E-01	 3.479E+06
         4.4800	 1.130E+01	 5.680E+05	-1.576E-01	-8.718E-02	 2.940E+06	 2.674E+01	 1.003E+02	 7.448E+00	 4.564E-01	 3.479E+06
         4.4800	 1.130E+01	 5.680E+05	-1.576E-01	-8.718E-02	 2.940E+06	 2.674E+01	 1.003E+02	 7.448E+00	 4.564E-01	 3.479E+06
         4.5200	 1.130E+01	 5.680E+05	-1.022E-01	 5.823E-02	 2.940E+06	 1.490E+01	 7.946E+01	 7.448E+00	 4.564E-01	 3.479E+06
         4.5400	 1.130E+01	 5.680E+05	-6.362E-02	-3.316E-01	 2.940E+06	 2.450E+01	 7.141E+01	 7.448E+00	 4.564E-01	 3.479E+06
         4.5600	 1.130E+01	 5.680E+05	-1.419E-01	 1.389E-02	 2.940E+06	 1.827E+01	-5.472E+00	 7.448E+00	 4.564E-01	 3.479E+06
         4.5800	 1.130E+01	 5.680E+05	-1.483E-01	 9.649E-02	 2.940E+06	 1.488E+01	-1.950E+01	 7.448E+00	 4.564E-01	 3.479E+06
         4.6000	 1.130E+01	 5.680E+05	-1.352E-01	 8.943E-02	 2.940E+06	 1.297E+01	-1.738E+01	 7.448E+00	 4.564E-01	 3.479E+06
         4.6200	 1.130E+01	 5.680E+05	-1.206E-01	 6.988E-02	 2.940E+06	 1.154E+01	-1.362E+01	 7.448E+00	 4.564E-01	 3.479E+06
         4.6200	 1.130E+01	 5.680E+05	-1.206E-01	 6.988E-02	 2.940E+06	 1.154E+01	-1.362E+01	 7.448E+00	 4.564E-01	 3.479E+06
         4.6600	 1.130E+01	 5.680E+05	-2.109E-02	 1.844E-01	 2.940E+06	-2.372E+00	 6.176E+01	 7.448E+00	 4.564E-01	 3.479E+06
         4.6600	 1.130E+01	 5.680E+05	-2.109E-02	 1.844E-01	 2.940E+06	-2.372E+00	 6.176E+01	 7.448E+00	 4.564E-01	 3.479E+06