
Predictions were generated on 05-Jul-2019 at 17:15:32 using AeroDyn_driver
 AeroDyn


     Time           	RtSkew    	RtSpeed   	RtAeroPwr 	B1Pitch   	B2Pitch   	B2Pitch   	RtVAvgxh  	RtVAvgyh  	RtVAvgzh  	RTAeroFxh 	RTAeroFyh 	RTAeroFzh 	RTAeroMxh 	RTAeroMyh 	RTAeroMzh 	RtTSR     	RtAeroCp  
      (s)           	(deg)     	(rpm)     	(W)       	(deg)     	(deg)     	(deg)     	(m/s)     	(m/s)     	(m/s)     	(N)       	(N)       	(N)       	(N m)     	(N m)     	(N m)     	(-)       	(-)       
         0.0000	 4.498E+01	 1.910E+01	 2.251E+05	 3.169E-15	-3.346E-15	-3.346E-15	 6.154E+00	 6.138E+00	-3.687E-01	 1.302E+05	 1.814E+03	-4.370E+03	 1.126E+05	 2.491E+05	 7.128E+05	 1.194E+01	 3.716E-01
         0.0300	 4.498E+01	 1.910E+01	 2.259E+05	 2.990E-15	-1.272E-15	-1.272E-15	 6.154E+00	 6.105E+00	-7.362E-01	 1.301E+05	 1.593E+03	-4.281E+03	 1.129E+05	 2.982E+05	 6.964E+05	 1.194E+01	 3.729E-01
         0.0600	 4.498E+01	 1.910E+01	 2.257E+05	 2.896E-15	-1.213E-15	-1.213E-15	 6.154E+00	 6.050E+00	-1.101E+00	 1.302E+05	 1.322E+03	-4.232E+03	 1.129E+05	 3.514E+05	 6.816E+05	 1.194E+01	 3.727E-01
         0.0900	 4.498E+01	 1.910E+01	 2.266E+05	-7.117E-15	 4.064E-15	 4.064E-15	 6.154E+00	 5.973E+00	-1.462E+00	 1.302E+05	 1.024E+03	-4.138E+03	 1.133E+05	 4.048E+05	 6.638E+05	 1.194E+01	 3.741E-01
         0.1200	 4.498E+01	 1.910E+01	 2.281E+05	-9.399E-16	 1.019E-15	 1.019E-15	 6.154E+00	 5.875E+00	-1.817E+00	 1.303E+05	 7.050E+02	-4.047E+03	 1.141E+05	 4.584E+05	 6.456E+05	 1.194E+01	 3.766E-01
         0.1500	 4.498E+01	 1.910E+01	 2.301E+05	-7.482E-15	 4.343E-15	 4.343E-15	 6.154E+00	 5.755E+00	-2.166E+00	 1.304E+05	 3.744E+02	-3.957E+03	 1.150E+05	 5.109E+05	 6.268E+05	 1.194E+01	 3.798E-01
         0.1800	 4.498E+01	 1.910E+01	 2.323E+05	-6.361E-15	 6.361E-15	 6.361E-15	 6.154E+00	 5.615E+00	-2.507E+00	 1.304E+05	 2.898E+01	-3.863E+03	 1.161E+05	 5.617E+05	 6.070E+05	 1.194E+01	 3.835E-01
         0.2100	 4.498E+01	 1.910E+01	 2.349E+05	 5.627E-15	 2.326E-15	 2.326E-15	 6.154E+00	 5.454E+00	-2.840E+00	 1.305E+05	-3.183E+02	-3.773E+03	 1.174E+05	 6.098E+05	 5.865E+05	 1.194E+01	 3.877E-01
         0.2400	 4.498E+01	 1.910E+01	 2.377E+05	-3.270E-15	 3.271E-15	 3.271E-15	 6.154E+00	 5.274E+00	-3.162E+00	 1.306E+05	-6.730E+02	-3.678E+03	 1.188E+05	 6.548E+05	 5.648E+05	 1.194E+01	 3.923E-01
         0.2700	 4.498E+01	 1.910E+01	 2.405E+05	-1.796E-15	-1.375E-15	-1.375E-15	 6.154E+00	 5.075E+00	-3.472E+00	 1.306E+05	-1.029E+03	-3.580E+03	 1.203E+05	 6.962E+05	 5.419E+05	 1.194E+01	 3.970E-01
         0.3000	 4.498E+01	 1.910E+01	 2.433E+05	 5.110E-16	-6.783E-15	-6.783E-15	 6.154E+00	 4.858E+00	-3.770E+00	 1.307E+05	-1.388E+03	-3.480E+03	 1.217E+05	 7.336E+05	 5.176E+05	 1.194E+01	 4.017E-01
         0.3300	 4.498E+01	 1.910E+01	 2.459E+05	 2.236E-15	-8.292E-15	-8.292E-15	 6.154E+00	 4.623E+00	-4.055E+00	 1.306E+05	-1.741E+03	-3.377E+03	 1.230E+05	 7.669E+05	 4.919E+05	 1.194E+01	 4.060E-01
         0.3600	 4.498E+01	 1.910E+01	 2.484E+05	-3.879E-15	 1.323E-15	 1.323E-15	 6.154E+00	 4.372E+00	-4.325E+00	 1.306E+05	-2.090E+03	-3.271E+03	 1.242E+05	 7.959E+05	 4.646E+05	 1.194E+01	 4.100E-01
         0.3900	 4.498E+01	 1.910E+01	 2.504E+05	-7.849E-15	 1.198E-14	 1.198E-14	 6.154E+00	 4.104E+00	-4.579E+00	 1.306E+05	-2.429E+03	-3.161E+03	 1.252E+05	 8.207E+05	 4.358E+05	 1.194E+01	 4.134E-01
         0.4200	 4.498E+01	 1.910E+01	 2.520E+05	-2.915E-15	 8.481E-16	 8.481E-16	 6.154E+00	 3.823E+00	-4.817E+00	 1.305E+05	-2.757E+03	-3.047E+03	 1.260E+05	 8.417E+05	 4.050E+05	 1.194E+01	 4.160E-01
         0.4500	 4.498E+01	 1.910E+01	 2.532E+05	 1.725E-15	-4.012E-15	-4.012E-15	 6.154E+00	 3.527E+00	-5.038E+00	 1.304E+05	-3.071E+03	-2.931E+03	 1.266E+05	 8.587E+05	 3.726E+05	 1.194E+01	 4.179E-01
         0.4800	 4.498E+01	 1.910E+01	 2.538E+05	-8.287E-16	 2.748E-15	 2.748E-15	 6.154E+00	 3.218E+00	-5.240E+00	 1.304E+05	-3.369E+03	-2.812E+03	 1.269E+05	 8.719E+05	 3.383E+05	 1.194E+01	 4.190E-01
         0.5100	 4.498E+01	 1.910E+01	 2.540E+05	 6.624E-16	-8.916E-15	-8.916E-15	 6.154E+00	 2.898E+00	-5.423E+00	 1.303E+05	-3.648E+03	-2.690E+03	 1.270E+05	 8.812E+05	 3.022E+05	 1.194E+01	 4.193E-01
         0.5400	 4.498E+01	 1.910E+01	 2.536E+05	-3.027E-15	-1.412E-15	-1.412E-15	 6.154E+00	 2.568E+00	-5.588E+00	 1.302E+05	-3.914E+03	-2.556E+03	 1.268E+05	 8.869E+05	 2.641E+05	 1.194E+01	 4.186E-01
         0.5700	 4.498E+01	 1.910E+01	 2.526E+05	-7.720E-17	 6.569E-15	 6.569E-15	 6.154E+00	 2.228E+00	-5.731E+00	 1.301E+05	-4.159E+03	-2.419E+03	 1.263E+05	 8.889E+05	 2.241E+05	 1.194E+01	 4.170E-01
         0.6000	 4.498E+01	 1.910E+01	 2.513E+05	 4.095E-15	-5.511E-15	-5.511E-15	 6.154E+00	 1.881E+00	-5.855E+00	 1.300E+05	-4.381E+03	-2.281E+03	 1.256E+05	 8.872E+05	 1.827E+05	 1.194E+01	 4.148E-01
         0.6300	 4.498E+01	 1.910E+01	 2.497E+05	-1.490E-15	-1.829E-15	-1.829E-15	 6.154E+00	 1.526E+00	-5.957E+00	 1.299E+05	-4.578E+03	-2.143E+03	 1.249E+05	 8.816E+05	 1.401E+05	 1.194E+01	 4.123E-01
         0.6600	 4.498E+01	 1.910E+01	 2.480E+05	 1.315E-15	 2.990E-15	 2.990E-15	 6.154E+00	 1.166E+00	-6.038E+00	 1.298E+05	-4.748E+03	-2.004E+03	 1.240E+05	 8.723E+05	 9.618E+04	 1.194E+01	 4.093E-01
         0.6900	 4.498E+01	 1.910E+01	 2.463E+05	 1.053E-15	-4.337E-15	-4.337E-15	 6.154E+00	 8.020E-01	-6.097E+00	 1.297E+05	-4.888E+03	-1.866E+03	 1.231E+05	 8.596E+05	 5.116E+04	 1.194E+01	 4.065E-01
         0.7200	 4.498E+01	 1.910E+01	 2.451E+05	 4.733E-16	-5.865E-15	-5.865E-15	 6.154E+00	 4.350E-01	-6.134E+00	 1.296E+05	-4.994E+03	-1.734E+03	 1.226E+05	 8.435E+05	 5.094E+03	 1.194E+01	 4.046E-01
         0.7500	 4.498E+01	 1.910E+01	 2.424E+05	 5.136E-17	 1.273E-15	 1.273E-15	 6.154E+00	 6.639E-02	-6.149E+00	 1.295E+05	-5.083E+03	-1.578E+03	 1.212E+05	 8.243E+05	-4.205E+04	 1.194E+01	 4.002E-01
         0.7800	 4.498E+01	 1.910E+01	 2.396E+05	 2.334E-16	 2.792E-15	 2.792E-15	 6.154E+00	-3.024E-01	-6.142E+00	 1.294E+05	-5.145E+03	-1.415E+03	 1.198E+05	 8.019E+05	-9.014E+04	 1.194E+01	 3.955E-01
         0.8100	 4.498E+01	 1.910E+01	 2.368E+05	-6.341E-16	-3.095E-15	-3.095E-15	 6.154E+00	-6.702E-01	-6.113E+00	 1.294E+05	-5.179E+03	-1.246E+03	 1.184E+05	 7.767E+05	-1.392E+05	 1.194E+01	 3.910E-01
         0.8400	 4.498E+01	 1.910E+01	 2.342E+05	-1.204E-15	 1.364E-15	 1.364E-15	 6.154E+00	-1.036E+00	-6.062E+00	 1.294E+05	-5.186E+03	-1.070E+03	 1.171E+05	 7.486E+05	-1.891E+05	 1.194E+01	 3.866E-01
         0.8700	 4.498E+01	 1.910E+01	 2.318E+05	-4.938E-18	-1.606E-15	-1.606E-15	 6.154E+00	-1.397E+00	-5.989E+00	 1.293E+05	-5.165E+03	-8.875E+02	 1.159E+05	 7.178E+05	-2.397E+05	 1.194E+01	 3.826E-01
         0.9000	 4.498E+01	 1.910E+01	 2.296E+05	 1.321E-15	 8.338E-16	 8.338E-16	 6.154E+00	-1.754E+00	-5.894E+00	 1.294E+05	-5.118E+03	-6.941E+02	 1.148E+05	 6.847E+05	-2.910E+05	 1.194E+01	 3.791E-01
         0.9300	 4.498E+01	 1.910E+01	 2.278E+05	 1.097E-15	-7.233E-15	-7.233E-15	 6.154E+00	-2.104E+00	-5.778E+00	 1.294E+05	-5.047E+03	-4.896E+02	 1.139E+05	 6.495E+05	-3.425E+05	 1.194E+01	 3.760E-01
         0.9600	 4.498E+01	 1.910E+01	 2.265E+05	 2.086E-15	 3.963E-15	 3.963E-15	 6.154E+00	-2.447E+00	-5.642E+00	 1.295E+05	-4.944E+03	-2.932E+02	 1.133E+05	 6.122E+05	-3.934E+05	 1.194E+01	 3.739E-01
         0.9900	 4.498E+01	 1.910E+01	 2.255E+05	 3.909E-15	 4.456E-15	 4.456E-15	 6.154E+00	-2.781E+00	-5.485E+00	 1.296E+05	-4.819E+03	-8.726E+01	 1.127E+05	 5.733E+05	-4.435E+05	 1.194E+01	 3.722E-01
         1.0200	 4.498E+01	 1.910E+01	 2.244E+05	 5.086E-15	 4.795E-15	 4.795E-15	 6.154E+00	-3.104E+00	-5.308E+00	 1.297E+05	-4.678E+03	 1.261E+02	 1.122E+05	 5.332E+05	-4.927E+05	 1.194E+01	 3.704E-01
         1.0500	 4.498E+01	 1.910E+01	 2.238E+05	-5.713E-15	-1.457E-15	-1.457E-15	 6.154E+00	-3.417E+00	-5.112E+00	 1.298E+05	-4.520E+03	 3.485E+02	 1.119E+05	 4.922E+05	-5.407E+05	 1.194E+01	 3.695E-01
         1.0800	 4.498E+01	 1.910E+01	 2.239E+05	 3.399E-15	-1.791E-15	-1.791E-15	 6.154E+00	-3.718E+00	-4.898E+00	 1.299E+05	-4.344E+03	 5.828E+02	 1.119E+05	 4.505E+05	-5.871E+05	 1.194E+01	 3.695E-01
         1.1100	 4.498E+01	 1.910E+01	 2.246E+05	 3.150E-16	 1.712E-15	 1.712E-15	 6.154E+00	-4.005E+00	-4.667E+00	 1.300E+05	-4.148E+03	 8.301E+02	 1.123E+05	 4.082E+05	-6.318E+05	 1.194E+01	 3.708E-01
         1.1400	 4.498E+01	 1.910E+01	 2.258E+05	-1.576E-15	-3.635E-16	-3.635E-16	 6.154E+00	-4.277E+00	-4.418E+00	 1.302E+05	-3.941E+03	 1.083E+03	 1.129E+05	 3.657E+05	-6.744E+05	 1.194E+01	 3.727E-01
         1.1700	 4.498E+01	 1.910E+01	 2.276E+05	-3.600E-15	 1.256E-15	 1.256E-15	 6.154E+00	-4.535E+00	-4.154E+00	 1.303E+05	-3.723E+03	 1.341E+03	 1.138E+05	 3.232E+05	-7.149E+05	 1.194E+01	 3.757E-01
         1.2000	 4.498E+01	 1.910E+01	 2.297E+05	-6.617E-15	 4.137E-15	 4.137E-15	 6.154E+00	-4.775E+00	-3.874E+00	 1.304E+05	-3.496E+03	 1.601E+03	 1.148E+05	 2.809E+05	-7.529E+05	 1.194E+01	 3.792E-01
         1.2300	 4.498E+01	 1.910E+01	 2.321E+05	 4.024E-15	-1.819E-15	-1.819E-15	 6.154E+00	-4.999E+00	-3.581E+00	 1.305E+05	-3.254E+03	 1.866E+03	 1.160E+05	 2.386E+05	-7.882E+05	 1.194E+01	 3.831E-01
         1.2600	 4.498E+01	 1.910E+01	 2.348E+05	-1.863E-15	 3.139E-15	 3.139E-15	 6.154E+00	-5.205E+00	-3.275E+00	 1.306E+05	-3.008E+03	 2.132E+03	 1.174E+05	 1.969E+05	-8.203E+05	 1.194E+01	 3.875E-01
         1.2900	 4.498E+01	 1.910E+01	 2.377E+05	-2.847E-15	-7.100E-16	-7.100E-16	 6.154E+00	-5.392E+00	-2.957E+00	 1.306E+05	-2.757E+03	 2.399E+03	 1.188E+05	 1.559E+05	-8.488E+05	 1.194E+01	 3.923E-01
         1.3200	 4.498E+01	 1.910E+01	 2.406E+05	 7.592E-16	-1.809E-15	-1.809E-15	 6.154E+00	-5.559E+00	-2.628E+00	 1.307E+05	-2.503E+03	 2.665E+03	 1.203E+05	 1.156E+05	-8.733E+05	 1.194E+01	 3.972E-01
         1.3500	 4.498E+01	 1.910E+01	 2.436E+05	-2.829E-15	-1.387E-15	-1.387E-15	 6.154E+00	-5.707E+00	-2.290E+00	 1.307E+05	-2.255E+03	 2.929E+03	 1.218E+05	 7.638E+04	-8.936E+05	 1.194E+01	 4.022E-01
         1.3800	 4.498E+01	 1.910E+01	 2.464E+05	-1.690E-15	 2.844E-15	 2.844E-15	 6.154E+00	-5.834E+00	-1.944E+00	 1.307E+05	-1.999E+03	 3.187E+03	 1.232E+05	 3.773E+04	-9.095E+05	 1.194E+01	 4.067E-01
         1.4100	 4.498E+01	 1.910E+01	 2.488E+05	 3.455E-15	-4.721E-16	-4.721E-16	 6.154E+00	-5.940E+00	-1.590E+00	 1.307E+05	-1.741E+03	 3.437E+03	 1.244E+05	-1.564E+02	-9.209E+05	 1.194E+01	 4.108E-01
         1.4400	 4.498E+01	 1.910E+01	 2.509E+05	-2.718E-15	-7.614E-16	-7.614E-16	 6.154E+00	-6.025E+00	-1.231E+00	 1.306E+05	-1.484E+03	 3.678E+03	 1.255E+05	-3.741E+04	-9.278E+05	 1.194E+01	 4.142E-01
         1.4700	 4.498E+01	 1.910E+01	 2.525E+05	-2.952E-15	-7.814E-16	-7.814E-16	 6.154E+00	-6.088E+00	-8.678E-01	 1.306E+05	-1.228E+03	 3.907E+03	 1.263E+05	-7.434E+04	-9.303E+05	 1.194E+01	 4.169E-01
         1.5000	 4.498E+01	 1.910E+01	 2.537E+05	 7.603E-15	-5.242E-15	-5.242E-15	 6.154E+00	-6.129E+00	-5.012E-01	 1.305E+05	-9.768E+02	 4.121E+03	 1.268E+05	-1.108E+05	-9.286E+05	 1.194E+01	 4.188E-01
         1.5300	 4.498E+01	 1.910E+01	 2.543E+05	-1.315E-15	-6.592E-16	-6.592E-16	 6.154E+00	-6.148E+00	-1.328E-01	 1.304E+05	-7.298E+02	 4.321E+03	 1.272E+05	-1.469E+05	-9.226E+05	 1.194E+01	 4.198E-01
         1.5600	 4.498E+01	 1.910E+01	 2.545E+05	-1.150E-15	 2.159E-16	 2.159E-16	 6.154E+00	-6.145E+00	 2.361E-01	 1.303E+05	-4.888E+02	 4.502E+03	 1.272E+05	-1.828E+05	-9.124E+05	 1.194E+01	 4.201E-01
         1.5900	 4.498E+01	 1.910E+01	 2.540E+05	 5.000E-15	-3.170E-15	-3.170E-15	 6.154E+00	-6.120E+00	 6.042E-01	 1.302E+05	-2.407E+02	 4.666E+03	 1.270E+05	-2.185E+05	-8.979E+05	 1.194E+01	 4.192E-01
         1.6200	 4.498E+01	 1.910E+01	 2.529E+05	 8.529E-15	-2.553E-15	-2.553E-15	 6.154E+00	-6.072E+00	 9.700E-01	 1.301E+05	-5.060E-01	 4.809E+03	 1.265E+05	-2.540E+05	-8.794E+05	 1.194E+01	 4.175E-01
         1.6500	 4.498E+01	 1.910E+01	 2.515E+05	-1.868E-15	-1.242E-15	-1.242E-15	 6.154E+00	-6.003E+00	 1.332E+00	 1.300E+05	 2.288E+02	 4.932E+03	 1.258E+05	-2.889E+05	-8.569E+05	 1.194E+01	 4.153E-01
         1.6800	 4.498E+01	 1.910E+01	 2.499E+05	 1.822E-15	 3.303E-15	 3.303E-15	 6.154E+00	-5.913E+00	 1.690E+00	 1.299E+05	 4.464E+02	 5.032E+03	 1.250E+05	-3.230E+05	-8.304E+05	 1.194E+01	 4.126E-01
         1.7100	 4.498E+01	 1.910E+01	 2.481E+05	 9.490E-15	-3.782E-15	-3.782E-15	 6.154E+00	-5.801E+00	 2.042E+00	 1.298E+05	 6.522E+02	 5.108E+03	 1.241E+05	-3.562E+05	-8.001E+05	 1.194E+01	 4.096E-01
         1.7400	 4.498E+01	 1.910E+01	 2.464E+05	-4.790E-16	 1.758E-15	 1.758E-15	 6.154E+00	-5.668E+00	 2.386E+00	 1.297E+05	 8.404E+02	 5.160E+03	 1.232E+05	-3.887E+05	-7.663E+05	 1.194E+01	 4.068E-01
         1.7700	 4.498E+01	 1.910E+01	 2.451E+05	 4.167E-15	-4.248E-15	-4.248E-15	 6.154E+00	-5.515E+00	 2.721E+00	 1.296E+05	 1.009E+03	 5.184E+03	 1.226E+05	-4.205E+05	-7.291E+05	 1.194E+01	 4.046E-01
         1.8000	 4.498E+01	 1.910E+01	 2.423E+05	-7.350E-15	 5.759E-15	 5.759E-15	 6.154E+00	-5.341E+00	 3.047E+00	 1.296E+05	 1.191E+03	 5.182E+03	 1.211E+05	-4.516E+05	-6.886E+05	 1.194E+01	 4.000E-01
         1.8300	 4.498E+01	 1.910E+01	 2.395E+05	-3.137E-15	-9.580E-17	-9.580E-17	 6.154E+00	-5.149E+00	 3.362E+00	 1.295E+05	 1.362E+03	 5.152E+03	 1.197E+05	-4.820E+05	-6.450E+05	 1.194E+01	 3.953E-01
         1.8600	 4.498E+01	 1.910E+01	 2.367E+05	 2.376E-15	 6.894E-15	 6.894E-15	 6.154E+00	-4.938E+00	 3.665E+00	 1.294E+05	 1.524E+03	 5.095E+03	 1.184E+05	-5.118E+05	-5.983E+05	 1.194E+01	 3.908E-01
         1.8900	 4.498E+01	 1.910E+01	 2.341E+05	-7.490E-15	 6.763E-15	 6.763E-15	 6.154E+00	-4.710E+00	 3.954E+00	 1.294E+05	 1.679E+03	 5.012E+03	 1.171E+05	-5.409E+05	-5.488E+05	 1.194E+01	 3.865E-01
         1.9200	 4.498E+01	 1.910E+01	 2.317E+05	 2.000E-15	-4.103E-17	-4.103E-17	 6.154E+00	-4.464E+00	 4.229E+00	 1.294E+05	 1.826E+03	 4.901E+03	 1.158E+05	-5.693E+05	-4.966E+05	 1.194E+01	 3.825E-01
         1.9500	 4.498E+01	 1.910E+01	 2.295E+05	 4.741E-15	-3.345E-15	-3.345E-15	 6.154E+00	-4.202E+00	 4.489E+00	 1.294E+05	 1.970E+03	 4.761E+03	 1.148E+05	-5.971E+05	-4.421E+05	 1.194E+01	 3.789E-01
         1.9800	 4.498E+01	 1.910E+01	 2.277E+05	-9.521E-15	 1.013E-14	 1.013E-14	 6.154E+00	-3.926E+00	 4.733E+00	 1.294E+05	 2.110E+03	 4.595E+03	 1.139E+05	-6.239E+05	-3.857E+05	 1.194E+01	 3.760E-01
         2.0100	 4.498E+01	 1.910E+01	 2.264E+05	 5.341E-15	-5.398E-15	-5.398E-15	 6.154E+00	-3.635E+00	 4.960E+00	 1.295E+05	 2.238E+03	 4.406E+03	 1.132E+05	-6.492E+05	-3.279E+05	 1.194E+01	 3.737E-01
         2.0400	 4.498E+01	 1.910E+01	 2.252E+05	-1.889E-15	-4.810E-15	-4.810E-15	 6.154E+00	-3.331E+00	 5.169E+00	 1.296E+05	 2.362E+03	 4.193E+03	 1.126E+05	-6.732E+05	-2.691E+05	 1.194E+01	 3.717E-01
         2.0700	 4.498E+01	 1.910E+01	 2.240E+05	-4.520E-16	-3.359E-15	-3.359E-15	 6.154E+00	-3.015E+00	 5.360E+00	 1.297E+05	 2.484E+03	 3.964E+03	 1.120E+05	-6.957E+05	-2.097E+05	 1.194E+01	 3.697E-01
         2.1000	 4.498E+01	 1.910E+01	 2.235E+05	 3.171E-15	-1.131E-15	-1.131E-15	 6.154E+00	-2.688E+00	 5.531E+00	 1.298E+05	 2.600E+03	 3.713E+03	 1.117E+05	-7.166E+05	-1.503E+05	 1.194E+01	 3.689E-01
         2.1300	 4.498E+01	 1.910E+01	 2.237E+05	 2.214E-15	-1.664E-15	-1.664E-15	 6.154E+00	-2.352E+00	 5.682E+00	 1.299E+05	 2.711E+03	 3.441E+03	 1.118E+05	-7.357E+05	-9.096E+04	 1.194E+01	 3.692E-01
         2.1600	 4.498E+01	 1.910E+01	 2.244E+05	 3.006E-15	-3.785E-15	-3.785E-15	 6.154E+00	-2.007E+00	 5.813E+00	 1.300E+05	 2.823E+03	 3.149E+03	 1.122E+05	-7.530E+05	-3.208E+04	 1.194E+01	 3.704E-01
         2.1900	 4.498E+01	 1.910E+01	 2.256E+05	 1.708E-15	 7.906E-16	 7.906E-16	 6.154E+00	-1.654E+00	 5.923E+00	 1.301E+05	 2.936E+03	 2.841E+03	 1.128E+05	-7.685E+05	 2.597E+04	 1.194E+01	 3.725E-01
         2.2200	 4.498E+01	 1.910E+01	 2.276E+05	-5.093E-16	-2.465E-15	-2.465E-15	 6.154E+00	-1.296E+00	 6.011E+00	 1.303E+05	 3.048E+03	 2.522E+03	 1.138E+05	-7.821E+05	 8.284E+04	 1.194E+01	 3.757E-01
         2.2500	 4.498E+01	 1.910E+01	 2.298E+05	 1.106E-16	-2.900E-15	-2.900E-15	 6.154E+00	-9.335E-01	 6.078E+00	 1.304E+05	 3.158E+03	 2.194E+03	 1.149E+05	-7.937E+05	 1.384E+05	 1.194E+01	 3.793E-01
         2.2800	 4.498E+01	 1.910E+01	 2.322E+05	 4.247E-16	-6.883E-15	-6.883E-15	 6.154E+00	-5.673E-01	 6.123E+00	 1.305E+05	 3.264E+03	 1.851E+03	 1.161E+05	-8.029E+05	 1.924E+05	 1.194E+01	 3.834E-01
         2.3100	 4.498E+01	 1.910E+01	 2.349E+05	-1.946E-16	-2.610E-15	-2.610E-15	 6.154E+00	-1.991E-01	 6.146E+00	 1.305E+05	 3.370E+03	 1.505E+03	 1.175E+05	-8.096E+05	 2.444E+05	 1.194E+01	 3.878E-01
         2.3400	 4.498E+01	 1.910E+01	 2.379E+05	-9.682E-17	 3.540E-15	 3.540E-15	 6.154E+00	 1.698E-01	 6.147E+00	 1.306E+05	 3.475E+03	 1.154E+03	 1.189E+05	-8.134E+05	 2.939E+05	 1.194E+01	 3.927E-01
         2.3700	 4.498E+01	 1.910E+01	 2.408E+05	 3.660E-17	 5.476E-15	 5.476E-15	 6.154E+00	 5.381E-01	 6.126E+00	 1.306E+05	 3.576E+03	 8.005E+02	 1.204E+05	-8.142E+05	 3.409E+05	 1.194E+01	 3.976E-01
         2.4000	 4.498E+01	 1.910E+01	 2.439E+05	 1.763E-15	 3.488E-16	 3.488E-16	 6.154E+00	 9.044E-01	 6.083E+00	 1.307E+05	 3.680E+03	 4.549E+02	 1.219E+05	-8.119E+05	 3.847E+05	 1.194E+01	 4.026E-01
         2.4300	 4.498E+01	 1.910E+01	 2.466E+05	-1.873E-15	 2.633E-17	 2.633E-17	 6.154E+00	 1.268E+00	 6.017E+00	 1.307E+05	 3.774E+03	 1.041E+02	 1.233E+05	-8.060E+05	 4.258E+05	 1.194E+01	 4.071E-01
         2.4600	 4.498E+01	 1.910E+01	 2.490E+05	 1.019E-15	-1.906E-15	-1.906E-15	 6.154E+00	 1.626E+00	 5.930E+00	 1.307E+05	 3.860E+03	-2.436E+02	 1.245E+05	-7.965E+05	 4.641E+05	 1.194E+01	 4.111E-01
         2.4900	 4.498E+01	 1.910E+01	 2.511E+05	 4.534E-15	-6.308E-15	-6.308E-15	 6.154E+00	 1.979E+00	 5.822E+00	 1.306E+05	 3.939E+03	-5.860E+02	 1.255E+05	-7.835E+05	 4.995E+05	 1.194E+01	 4.144E-01
         2.5200	 4.498E+01	 1.910E+01	 2.526E+05	 6.138E-17	 1.691E-15	 1.691E-15	 6.154E+00	 2.324E+00	 5.693E+00	 1.305E+05	 4.008E+03	-9.207E+02	 1.263E+05	-7.669E+05	 5.325E+05	 1.194E+01	 4.170E-01
         2.5500	 4.498E+01	 1.910E+01	 2.537E+05	 2.820E-15	 1.368E-15	 1.368E-15	 6.154E+00	 2.662E+00	 5.544E+00	 1.305E+05	 4.066E+03	-1.245E+03	 1.269E+05	-7.469E+05	 5.630E+05	 1.194E+01	 4.189E-01
         2.5800	 4.498E+01	 1.910E+01	 2.543E+05	 2.821E-15	-1.790E-15	-1.790E-15	 6.154E+00	 2.989E+00	 5.374E+00	 1.304E+05	 4.114E+03	-1.557E+03	 1.272E+05	-7.233E+05	 5.911E+05	 1.194E+01	 4.198E-01
         2.6100	 4.498E+01	 1.910E+01	 2.544E+05	 1.226E-16	 1.063E-16	 1.063E-16	 6.154E+00	 3.306E+00	 5.185E+00	 1.303E+05	 4.149E+03	-1.855E+03	 1.272E+05	-6.961E+05	 6.168E+05	 1.194E+01	 4.200E-01
         2.6400	 4.498E+01	 1.910E+01	 2.539E+05	-1.662E-15	-3.587E-15	-3.587E-15	 6.154E+00	 3.611E+00	 4.978E+00	 1.302E+05	 4.165E+03	-2.150E+03	 1.269E+05	-6.654E+05	 6.403E+05	 1.194E+01	 4.191E-01
         2.6700	 4.498E+01	 1.910E+01	 2.528E+05	-1.881E-15	 1.720E-15	 1.720E-15	 6.154E+00	 3.903E+00	 4.752E+00	 1.301E+05	 4.168E+03	-2.429E+03	 1.264E+05	-6.313E+05	 6.616E+05	 1.194E+01	 4.173E-01
         2.7000	 4.498E+01	 1.910E+01	 2.514E+05	 3.181E-15	 1.056E-15	 1.056E-15	 6.154E+00	 4.181E+00	 4.509E+00	 1.300E+05	 4.157E+03	-2.687E+03	 1.257E+05	-5.940E+05	 6.803E+05	 1.194E+01	 4.150E-01
         2.7300	 4.498E+01	 1.910E+01	 2.498E+05	-2.388E-15	 8.410E-16	 8.410E-16	 6.154E+00	 4.444E+00	 4.251E+00	 1.299E+05	 4.134E+03	-2.924E+03	 1.249E+05	-5.538E+05	 6.963E+05	 1.194E+01	 4.123E-01
         2.7600	 4.498E+01	 1.910E+01	 2.479E+05	 7.507E-15	-2.511E-15	-2.511E-15	 6.154E+00	 4.691E+00	 3.977E+00	 1.298E+05	 4.095E+03	-3.138E+03	 1.240E+05	-5.107E+05	 7.097E+05	 1.194E+01	 4.093E-01
         2.7900	 4.498E+01	 1.910E+01	 2.463E+05	-1.891E-15	 1.908E-15	 1.908E-15	 6.154E+00	 4.921E+00	 3.688E+00	 1.297E+05	 4.045E+03	-3.324E+03	 1.231E+05	-4.650E+05	 7.208E+05	 1.194E+01	 4.065E-01
         2.8200	 4.498E+01	 1.910E+01	 2.448E+05	 4.244E-15	-5.274E-16	-5.274E-16	 6.154E+00	 5.133E+00	 3.386E+00	 1.296E+05	 3.978E+03	-3.482E+03	 1.224E+05	-4.166E+05	 7.295E+05	 1.194E+01	 4.042E-01
         2.8500	 4.498E+01	 1.910E+01	 2.420E+05	-7.672E-16	 6.321E-16	 6.321E-16	 6.154E+00	 5.327E+00	 3.072E+00	 1.295E+05	 3.883E+03	-3.636E+03	 1.210E+05	-3.657E+05	 7.359E+05	 1.194E+01	 3.995E-01
         2.8800	 4.498E+01	 1.910E+01	 2.392E+05	 5.110E-15	 6.472E-16	 6.472E-16	 6.154E+00	 5.501E+00	 2.748E+00	 1.295E+05	 3.771E+03	-3.767E+03	 1.196E+05	-3.125E+05	 7.403E+05	 1.194E+01	 3.949E-01
         2.9100	 4.498E+01	 1.910E+01	 2.365E+05	 6.691E-16	-2.358E-16	-2.358E-16	 6.154E+00	 5.656E+00	 2.413E+00	 1.294E+05	 3.639E+03	-3.877E+03	 1.182E+05	-2.570E+05	 7.425E+05	 1.194E+01	 3.904E-01
         2.9400	 4.498E+01	 1.910E+01	 2.339E+05	-8.060E-16	-1.420E-15	-1.420E-15	 6.154E+00	 5.791E+00	 2.069E+00	 1.294E+05	 3.487E+03	-3.968E+03	 1.169E+05	-1.994E+05	 7.428E+05	 1.194E+01	 3.861E-01
         2.9700	 4.498E+01	 1.910E+01	 2.315E+05	-5.356E-15	 2.255E-15	 2.255E-15	 6.154E+00	 5.904E+00	 1.718E+00	 1.294E+05	 3.315E+03	-4.037E+03	 1.157E+05	-1.398E+05	 7.411E+05	 1.194E+01	 3.821E-01
         3.0000	 4.498E+01	 1.910E+01	 2.294E+05	 6.965E-15	-2.944E-15	-2.944E-15	 6.154E+00	 5.997E+00	 1.361E+00	 1.294E+05	 3.120E+03	-4.091E+03	 1.147E+05	-7.859E+04	 7.378E+05	 1.194E+01	 3.786E-01
         3.0300	 4.498E+01	 1.910E+01	 2.276E+05	 2.339E-15	 2.019E-16	 2.019E-16	 6.154E+00	 6.068E+00	 9.990E-01	 1.294E+05	 2.904E+03	-4.128E+03	 1.138E+05	-1.625E+04	 7.326E+05	 1.194E+01	 3.757E-01
         3.0600	 4.498E+01	 1.910E+01	 2.263E+05	-8.436E-15	 1.615E-15	 1.615E-15	 6.154E+00	 6.117E+00	 6.334E-01	 1.295E+05	 2.674E+03	-4.142E+03	 1.131E+05	 4.652E+04	 7.255E+05	 1.194E+01	 3.735E-01
         3.0900	 4.498E+01	 1.910E+01	 2.251E+05	-3.381E-15	-5.167E-16	-5.167E-16	 6.154E+00	 6.144E+00	 2.655E-01	 1.296E+05	 2.426E+03	-4.142E+03	 1.126E+05	 1.094E+05	 7.167E+05	 1.194E+01	 3.716E-01
         3.1200	 4.498E+01	 1.910E+01	 2.240E+05	 1.285E-15	-1.251E-15	-1.251E-15	 6.154E+00	 6.149E+00	-1.034E-01	 1.297E+05	 2.163E+03	-4.132E+03	 1.120E+05	 1.720E+05	 7.063E+05	 1.194E+01	 3.698E-01
         3.1500	 4.498E+01	 1.910E+01	 2.236E+05	-3.897E-15	 2.560E-16	 2.560E-16	 6.154E+00	 6.131E+00	-4.719E-01	 1.298E+05	 1.887E+03	-4.106E+03	 1.118E+05	 2.339E+05	 6.946E+05	 1.194E+01	 3.691E-01
         3.1800	 4.498E+01	 1.910E+01	 2.237E+05	-6.251E-15	 4.999E-15	 4.999E-15	 6.154E+00	 6.092E+00	-8.387E-01	 1.299E+05	 1.596E+03	-4.066E+03	 1.118E+05	 2.947E+05	 6.813E+05	 1.194E+01	 3.693E-01
         3.2100	 4.498E+01	 1.910E+01	 2.242E+05	-2.686E-15	-9.517E-17	-9.517E-17	 6.154E+00	 6.031E+00	-1.202E+00	 1.300E+05	 1.290E+03	-4.015E+03	 1.121E+05	 3.542E+05	 6.668E+05	 1.194E+01	 3.701E-01
         3.2400	 4.498E+01	 1.910E+01	 2.256E+05	-2.926E-15	-2.505E-15	-2.505E-15	 6.154E+00	 5.948E+00	-1.562E+00	 1.301E+05	 9.643E+02	-3.958E+03	 1.128E+05	 4.121E+05	 6.510E+05	 1.194E+01	 3.725E-01
         3.2700	 4.498E+01	 1.910E+01	 2.277E+05	 2.387E-16	 3.211E-15	 3.211E-15	 6.154E+00	 5.843E+00	-1.916E+00	 1.303E+05	 6.299E+02	-3.896E+03	 1.138E+05	 4.679E+05	 6.343E+05	 1.194E+01	 3.759E-01
         3.3000	 4.498E+01	 1.910E+01	 2.299E+05	 5.573E-16	 3.660E-16	 3.660E-16	 6.154E+00	 5.718E+00	-2.263E+00	 1.304E+05	 2.884E+02	-3.825E+03	 1.150E+05	 5.216E+05	 6.164E+05	 1.194E+01	 3.796E-01
         3.3300	 4.498E+01	 1.910E+01	 2.325E+05	-1.897E-15	 9.755E-17	 9.755E-17	 6.154E+00	 5.572E+00	-2.602E+00	 1.305E+05	-6.260E+01	-3.747E+03	 1.162E+05	 5.727E+05	 5.972E+05	 1.194E+01	 3.837E-01
         3.3600	 4.498E+01	 1.910E+01	 2.352E+05	-2.854E-15	-3.459E-16	-3.459E-16	 6.154E+00	 5.406E+00	-2.931E+00	 1.306E+05	-4.159E+02	-3.665E+03	 1.176E+05	 6.208E+05	 5.770E+05	 1.194E+01	 3.883E-01
         3.3900	 4.498E+01	 1.910E+01	 2.382E+05	-2.313E-16	 6.566E-15	 6.566E-15	 6.154E+00	 5.220E+00	-3.250E+00	 1.306E+05	-7.728E+02	-3.579E+03	 1.191E+05	 6.653E+05	 5.554E+05	 1.194E+01	 3.932E-01
         3.4200	 4.498E+01	 1.910E+01	 2.411E+05	 3.122E-16	-1.005E-14	-1.005E-14	 6.154E+00	 5.016E+00	-3.557E+00	 1.306E+05	-1.129E+03	-3.490E+03	 1.206E+05	 7.059E+05	 5.325E+05	 1.194E+01	 3.980E-01
         3.4500	 4.498E+01	 1.910E+01	 2.441E+05	 4.519E-16	-9.362E-16	-9.362E-16	 6.154E+00	 4.794E+00	-3.851E+00	 1.307E+05	-1.480E+03	-3.407E+03	 1.221E+05	 7.423E+05	 5.084E+05	 1.194E+01	 4.030E-01
         3.4800	 4.498E+01	 1.910E+01	 2.468E+05	-4.023E-15	-3.274E-15	-3.274E-15	 6.154E+00	 4.554E+00	-4.132E+00	 1.307E+05	-1.830E+03	-3.312E+03	 1.234E+05	 7.746E+05	 4.826E+05	 1.194E+01	 4.075E-01
         3.5100	 4.498E+01	 1.910E+01	 2.492E+05	 9.438E-16	 7.031E-16	 7.031E-16	 6.154E+00	 4.298E+00	-4.398E+00	 1.307E+05	-2.174E+03	-3.212E+03	 1.246E+05	 8.025E+05	 4.551E+05	 1.194E+01	 4.115E-01
         3.5400	 4.498E+01	 1.910E+01	 2.512E+05	 1.773E-15	-3.523E-15	-3.523E-15	 6.154E+00	 4.027E+00	-4.647E+00	 1.306E+05	-2.508E+03	-3.109E+03	 1.256E+05	 8.264E+05	 4.259E+05	 1.194E+01	 4.147E-01
         3.5700	 4.498E+01	 1.910E+01	 2.528E+05	-2.726E-15	 3.722E-15	 3.722E-15	 6.154E+00	 3.741E+00	-4.881E+00	 1.305E+05	-2.831E+03	-3.001E+03	 1.264E+05	 8.463E+05	 3.949E+05	 1.194E+01	 4.173E-01
         3.6000	 4.498E+01	 1.910E+01	 2.538E+05	-6.449E-15	 1.342E-15	 1.342E-15	 6.154E+00	 3.442E+00	-5.096E+00	 1.305E+05	-3.139E+03	-2.889E+03	 1.269E+05	 8.623E+05	 3.622E+05	 1.194E+01	 4.190E-01
         3.6300	 4.498E+01	 1.910E+01	 2.544E+05	-2.657E-15	 3.379E-15	 3.379E-15	 6.154E+00	 3.130E+00	-5.293E+00	 1.304E+05	-3.432E+03	-2.774E+03	 1.272E+05	 8.745E+05	 3.275E+05	 1.194E+01	 4.199E-01
         3.6600	 4.498E+01	 1.910E+01	 2.544E+05	 7.261E-16	 5.257E-15	 5.257E-15	 6.154E+00	 2.807E+00	-5.471E+00	 1.303E+05	-3.706E+03	-2.655E+03	 1.272E+05	 8.828E+05	 2.910E+05	 1.194E+01	 4.200E-01
         3.6900	 4.498E+01	 1.910E+01	 2.538E+05	-2.396E-15	-7.405E-15	-7.405E-15	 6.154E+00	 2.474E+00	-5.630E+00	 1.302E+05	-3.968E+03	-2.521E+03	 1.269E+05	 8.875E+05	 2.525E+05	 1.194E+01	 4.190E-01
         3.7200	 4.498E+01	 1.910E+01	 2.527E+05	-1.985E-15	 2.107E-15	 2.107E-15	 6.154E+00	 2.132E+00	-5.768E+00	 1.301E+05	-4.208E+03	-2.383E+03	 1.263E+05	 8.885E+05	 2.121E+05	 1.194E+01	 4.171E-01
         3.7500	 4.498E+01	 1.910E+01	 2.513E+05	-1.590E-15	-6.361E-15	-6.361E-15	 6.154E+00	 1.782E+00	-5.886E+00	 1.300E+05	-4.424E+03	-2.245E+03	 1.256E+05	 8.857E+05	 1.704E+05	 1.194E+01	 4.148E-01
         3.7800	 4.498E+01	 1.910E+01	 2.496E+05	 1.634E-15	-2.726E-15	-2.726E-15	 6.154E+00	 1.426E+00	-5.982E+00	 1.299E+05	-4.615E+03	-2.106E+03	 1.248E+05	 8.791E+05	 1.274E+05	 1.194E+01	 4.121E-01
         3.8100	 4.498E+01	 1.910E+01	 2.478E+05	 4.802E-17	-2.091E-15	-2.091E-15	 6.154E+00	 1.064E+00	-6.057E+00	 1.298E+05	-4.779E+03	-1.965E+03	 1.239E+05	 8.689E+05	 8.326E+04	 1.194E+01	 4.090E-01
         3.8400	 4.498E+01	 1.910E+01	 2.461E+05	-1.131E-15	 6.195E-16	 6.195E-16	 6.154E+00	 6.994E-01	-6.109E+00	 1.297E+05	-4.912E+03	-1.828E+03	 1.231E+05	 8.553E+05	 3.801E+04	 1.194E+01	 4.063E-01
         3.8700	 4.498E+01	 1.910E+01	 2.446E+05	 6.172E-16	 1.159E-16	 1.159E-16	 6.154E+00	 3.318E-01	-6.140E+00	 1.296E+05	-5.014E+03	-1.690E+03	 1.223E+05	 8.383E+05	-8.336E+03	 1.194E+01	 4.038E-01
         3.9000	 4.498E+01	 1.910E+01	 2.418E+05	 5.000E-17	-4.311E-15	-4.311E-15	 6.154E+00	-3.701E-02	-6.149E+00	 1.295E+05	-5.097E+03	-1.530E+03	 1.209E+05	 8.182E+05	-5.571E+04	 1.194E+01	 3.991E-01
         3.9300	 4.498E+01	 1.910E+01	 2.390E+05	 3.811E-17	 1.852E-16	 1.852E-16	 6.154E+00	-4.057E-01	-6.136E+00	 1.295E+05	-5.152E+03	-1.367E+03	 1.195E+05	 7.950E+05	-1.041E+05	 1.194E+01	 3.945E-01
         3.9600	 4.498E+01	 1.910E+01	 2.362E+05	 9.717E-16	-5.616E-15	-5.616E-15	 6.154E+00	-7.729E-01	-6.101E+00	 1.294E+05	-5.179E+03	-1.197E+03	 1.181E+05	 7.690E+05	-1.533E+05	 1.194E+01	 3.900E-01
         3.9900	 4.498E+01	 1.910E+01	 2.336E+05	 2.029E-15	 6.754E-16	 6.754E-16	 6.154E+00	-1.137E+00	-6.043E+00	 1.294E+05	-5.178E+03	-1.019E+03	 1.168E+05	 7.402E+05	-2.034E+05	 1.194E+01	 3.857E-01
         4.0200	 4.498E+01	 1.910E+01	 2.313E+05	-1.428E-15	-3.312E-15	-3.312E-15	 6.154E+00	-1.498E+00	-5.964E+00	 1.294E+05	-5.150E+03	-8.347E+02	 1.156E+05	 7.087E+05	-2.542E+05	 1.194E+01	 3.818E-01
         4.0500	 4.498E+01	 1.910E+01	 2.292E+05	 1.921E-15	 1.876E-15	 1.876E-15	 6.154E+00	-1.853E+00	-5.864E+00	 1.294E+05	-5.097E+03	-6.381E+02	 1.146E+05	 6.750E+05	-3.056E+05	 1.194E+01	 3.783E-01
         4.0800	 4.498E+01	 1.910E+01	 2.275E+05	-3.622E-15	-2.866E-15	-2.866E-15	 6.154E+00	-2.201E+00	-5.742E+00	 1.294E+05	-5.018E+03	-4.326E+02	 1.137E+05	 6.391E+05	-3.570E+05	 1.194E+01	 3.755E-01
         4.1100	 4.498E+01	 1.910E+01	 2.262E+05	 2.958E-15	 3.525E-17	 3.525E-17	 6.154E+00	-2.541E+00	-5.600E+00	 1.295E+05	-4.913E+03	-2.255E+02	 1.131E+05	 6.014E+05	-4.077E+05	 1.194E+01	 3.734E-01
         4.1400	 4.498E+01	 1.910E+01	 2.251E+05	-2.544E-15	 6.634E-15	 6.634E-15	 6.154E+00	-2.872E+00	-5.437E+00	 1.296E+05	-4.788E+03	-8.666E+00	 1.125E+05	 5.622E+05	-4.577E+05	 1.194E+01	 3.715E-01
         4.1700	 4.498E+01	 1.910E+01	 2.241E+05	 6.324E-16	 4.117E-15	 4.117E-15	 6.154E+00	-3.193E+00	-5.255E+00	 1.297E+05	-4.645E+03	 2.154E+02	 1.120E+05	 5.219E+05	-5.067E+05	 1.194E+01	 3.699E-01
         4.2000	 4.498E+01	 1.910E+01	 2.237E+05	-2.876E-15	-2.234E-15	-2.234E-15	 6.154E+00	-3.503E+00	-5.054E+00	 1.298E+05	-4.483E+03	 4.416E+02	 1.118E+05	 4.807E+05	-5.542E+05	 1.194E+01	 3.692E-01
         4.2300	 4.498E+01	 1.910E+01	 2.238E+05	-9.489E-16	 1.339E-15	 1.339E-15	 6.154E+00	-3.799E+00	-4.835E+00	 1.299E+05	-4.301E+03	 6.737E+02	 1.119E+05	 4.388E+05	-6.001E+05	 1.194E+01	 3.694E-01
         4.2600	 4.498E+01	 1.910E+01	 2.243E+05	 4.923E-15	-3.976E-16	-3.976E-16	 6.154E+00	-4.083E+00	-4.599E+00	 1.300E+05	-4.103E+03	 9.142E+02	 1.122E+05	 3.964E+05	-6.442E+05	 1.194E+01	 3.703E-01
         4.2900	 4.498E+01	 1.910E+01	 2.258E+05	-8.058E-16	 2.290E-15	 2.290E-15	 6.154E+00	-4.351E+00	-4.346E+00	 1.302E+05	-3.890E+03	 1.167E+03	 1.129E+05	 3.538E+05	-6.863E+05	 1.194E+01	 3.727E-01
         4.3200	 4.498E+01	 1.910E+01	 2.276E+05	 4.535E-15	-5.579E-15	-5.579E-15	 6.154E+00	-4.604E+00	-4.077E+00	 1.303E+05	-3.671E+03	 1.421E+03	 1.138E+05	 3.114E+05	-7.260E+05	 1.194E+01	 3.757E-01