
Predictions were generated on 16-Jun-2019 at 21:01:27 using AeroDyn_driver
 AeroDyn


     Time           	RtSkew    	RtSpeed   	RtAeroPwr 	B1Pitch   	B2Pitch   	B2Pitch   	RtVAvgxh  	RtVAvgyh  	RtVAvgzh  	RTAeroFxh 	RTAeroFyh 	RTAeroFzh 	RTAeroMxh 	RTAeroMyh 	RTAeroMzh 	RtTSR     	RtAeroCp  
      (s)           	(deg)     	(rpm)     	(W)       	(deg)     	(deg)     	(deg)     	(m/s)     	(m/s)     	(m/s)     	(N)       	(N)       	(N)       	(N m)     	(N m)     	(N m)     	(-)       	(-)       
         0.0100	 0.000E+00	 1.910E+01	 7.337E+05	 0.000E+00	 0.000E+00	 0.000E+00	 8.700E+00	-5.573E-15	 2.786E-15	 1.932E+05	 1.364E-12	-2.728E-12	 3.668E+05	 0.000E+00	 4.657E-10	 8.448E+00	 4.287E-01
         0.0200	 0.000E+00	 1.910E+01	 7.333E+05	 0.000E+00	 0.000E+00	 0.000E+00	 8.700E+00	 2.357E-15	 6.363E-15	 1.932E+05	-2.203E-02	 3.305E-04	 3.667E+05	 1.421E+00	-4.579E-02	 8.448E+00	 4.285E-01
