
Predictions were generated on 26-Aug-2019 at 14:05:44 using AeroDyn_Interface_Subs
 AeroDyn


     Time           	RtSpeed   	RtAeroFxh 	RtAeroFyh 	RtAeroFzh 	RtAeroMxh 	RtAeroMyh 	RtAeroMzh 	RtTSR     	RtAeroCp  	RtAeroPwr 
      (s)           	(rpm)     	(N)       	(N)       	(N)       	(N-m)     	(N-m)     	(N-m)     	(-)       	(-)       	(W)       
         0.0000	 1.130E+01	 5.936E+05	-8.004E-11	 6.185E-11	 3.102E+06	 2.794E-08	-2.142E-08	 7.448E+00	 4.815E-01	 3.670E+06
