
Predictions were generated on 29-May-2019 at 11:54:06 using AeroDyn_driver
 AeroDyn


     Time           	B1N1VDisx 	B1N1VDisy 	B1N1VDisz 	B1N2VDisx 	B1N2VDisy 	B1N2VDisz 	B1N3VDisx 	B1N3VDisy 	B1N3VDisz 	B1N1STVx  	B1N1STVy  	B1N1STVz  	B1N2STVx  	B1N2STVy  	B1N2STVz  	B1N3STVx  	B1N3STVy  	B1N3STVz  	RtSpeed   	RtSkew    	B1N1AxInd 	B1N2AxInd 	B1N3AxInd 	B1N1Alpha 	B1N2Alpha 	B1N3Alpha 	B1N1Theta 	B1N2Theta 	B1N3Theta 	RTAeroFxh 	RTAeroFyh 	RTAeroFzh 	RTAeroMxh 	RTAeroMyh 	RTAeroMzh 	RTAeroCp  	RTAeroCq  	RTAeroCt  
      (s)           	(m/s)     	(m/s)     	(m/s)     	(m/s)     	(m/s)     	(m/s)     	(m/s)     	(m/s)     	(m/s)     	(m/s)     	(m/s)     	(m/s)     	(m/s)     	(m/s)     	(m/s)     	(m/s)     	(m/s)     	(m/s)     	(rpm)     	INVALID   	(-)       	(-)       	(-)       	(deg)     	(deg)     	(deg)     	(deg)     	(deg)     	(deg)     	INVALID   	INVALID   	INVALID   	(N-m)     	(N-m)     	(N-m)     	INVALID   	INVALID   	INVALID   
