
Predictions were generated on 16-Oct-2019 at 12:20:35 using AeroDyn_Interface_Subs
 AeroDyn


     Time           	RtSpeed   	RtAeroFxh 	RtAeroFyh 	RtAeroFzh 	RtAeroMxh 	RtAeroMyh 	RtAeroMzh 	RtTSR     	RtAeroCp  	RtAeroPwr 
      (s)           	(rpm)     	(N)       	(N)       	(N)       	(N-m)     	(N-m)     	(N-m)     	(-)       	(-)       	(W)       
         0.0000	 1.130E+01	 3.525E+05	 1.039E+04	-1.363E+04	 1.102E+06	 5.193E+05	 3.226E+06	 1.053E+01	 4.839E-01	 1.304E+06
         0.0200	 1.130E+01	 3.526E+05	 9.610E+03	-1.392E+04	 1.102E+06	 7.550E+05	 3.187E+06	 1.053E+01	 4.838E-01	 1.304E+06
         0.0400	 1.130E+01	 3.359E+05	 9.424E+03	-1.227E+04	 1.018E+06	 7.550E+05	 3.007E+06	 1.053E+01	 4.472E-01	 1.205E+06
         0.0600	 1.130E+01	 3.358E+05	 9.269E+03	-1.297E+04	 1.018E+06	 8.344E+05	 3.054E+06	 1.053E+01	 4.468E-01	 1.204E+06
         0.0800	 1.130E+01	 3.354E+05	 8.955E+03	-1.313E+04	 1.015E+06	 9.430E+05	 3.021E+06	 1.053E+01	 4.457E-01	 1.201E+06
         0.1000	 1.130E+01	 3.355E+05	 8.758E+03	-1.341E+04	 1.015E+06	 1.004E+06	 3.023E+06	 1.053E+01	 4.458E-01	 1.201E+06
         0.1200	 1.130E+01	 3.355E+05	 8.521E+03	-1.355E+04	 1.016E+06	 1.066E+06	 3.015E+06	 1.053E+01	 4.460E-01	 1.202E+06
         0.1400	 1.130E+01	 3.352E+05	 8.136E+03	-1.318E+04	 1.014E+06	 1.164E+06	 2.938E+06	 1.053E+01	 4.454E-01	 1.200E+06
         0.1600	 1.130E+01	 3.354E+05	 7.893E+03	-1.337E+04	 1.016E+06	 1.232E+06	 2.933E+06	 1.053E+01	 4.460E-01	 1.202E+06
         0.1800	 1.130E+01	 3.355E+05	 7.623E+03	-1.353E+04	 1.017E+06	 1.302E+06	 2.927E+06	 1.053E+01	 4.466E-01	 1.204E+06
         0.2000	 1.130E+01	 3.352E+05	 7.204E+03	-1.317E+04	 1.016E+06	 1.403E+06	 2.852E+06	 1.053E+01	 4.461E-01	 1.202E+06
         0.2200	 1.130E+01	 3.354E+05	 6.928E+03	-1.335E+04	 1.018E+06	 1.475E+06	 2.847E+06	 1.053E+01	 4.469E-01	 1.204E+06
         0.2400	 1.130E+01	 3.356E+05	 6.636E+03	-1.353E+04	 1.020E+06	 1.549E+06	 2.841E+06	 1.053E+01	 4.477E-01	 1.207E+06
         0.2600	 1.130E+01	 3.353E+05	 6.201E+03	-1.319E+04	 1.019E+06	 1.648E+06	 2.767E+06	 1.053E+01	 4.472E-01	 1.205E+06
         0.2800	 1.130E+01	 3.355E+05	 5.887E+03	-1.336E+04	 1.020E+06	 1.723E+06	 2.760E+06	 1.053E+01	 4.480E-01	 1.207E+06
         0.3000	 1.130E+01	 3.357E+05	 5.568E+03	-1.353E+04	 1.022E+06	 1.797E+06	 2.752E+06	 1.053E+01	 4.489E-01	 1.210E+06
         0.3200	 1.130E+01	 3.354E+05	 5.136E+03	-1.323E+04	 1.022E+06	 1.891E+06	 2.679E+06	 1.053E+01	 4.486E-01	 1.209E+06
         0.3400	 1.130E+01	 3.356E+05	 4.809E+03	-1.340E+04	 1.024E+06	 1.965E+06	 2.670E+06	 1.053E+01	 4.495E-01	 1.212E+06
         0.3600	 1.130E+01	 3.358E+05	 4.467E+03	-1.355E+04	 1.026E+06	 2.039E+06	 2.660E+06	 1.053E+01	 4.505E-01	 1.214E+06
         0.3800	 1.130E+01	 3.355E+05	 4.031E+03	-1.326E+04	 1.026E+06	 2.126E+06	 2.587E+06	 1.053E+01	 4.503E-01	 1.214E+06
         0.4000	 1.130E+01	 3.357E+05	 3.680E+03	-1.341E+04	 1.028E+06	 2.198E+06	 2.576E+06	 1.053E+01	 4.513E-01	 1.216E+06
         0.4200	 1.130E+01	 3.359E+05	 3.320E+03	-1.355E+04	 1.030E+06	 2.270E+06	 2.563E+06	 1.053E+01	 4.524E-01	 1.219E+06
         0.4400	 1.130E+01	 3.356E+05	 2.898E+03	-1.328E+04	 1.030E+06	 2.349E+06	 2.491E+06	 1.053E+01	 4.522E-01	 1.219E+06
         0.4600	 1.130E+01	 3.358E+05	 2.535E+03	-1.342E+04	 1.032E+06	 2.418E+06	 2.476E+06	 1.053E+01	 4.533E-01	 1.222E+06
         0.4800	 1.130E+01	 3.360E+05	 2.162E+03	-1.355E+04	 1.035E+06	 2.487E+06	 2.460E+06	 1.053E+01	 4.543E-01	 1.224E+06
         0.5000	 1.130E+01	 3.357E+05	 1.755E+03	-1.330E+04	 1.035E+06	 2.557E+06	 2.388E+06	 1.053E+01	 4.543E-01	 1.224E+06
         0.5200	 1.130E+01	 3.359E+05	 1.376E+03	-1.341E+04	 1.037E+06	 2.622E+06	 2.370E+06	 1.053E+01	 4.553E-01	 1.227E+06
         0.5400	 1.130E+01	 3.361E+05	 9.849E+02	-1.351E+04	 1.039E+06	 2.687E+06	 2.350E+06	 1.053E+01	 4.564E-01	 1.230E+06
         0.5600	 1.130E+01	 3.359E+05	 5.958E+02	-1.328E+04	 1.039E+06	 2.747E+06	 2.278E+06	 1.053E+01	 4.563E-01	 1.230E+06
         0.5800	 1.130E+01	 3.360E+05	 2.015E+02	-1.336E+04	 1.042E+06	 2.809E+06	 2.256E+06	 1.053E+01	 4.574E-01	 1.233E+06
         0.6000	 1.130E+01	 3.362E+05	-2.029E+02	-1.344E+04	 1.044E+06	 2.869E+06	 2.232E+06	 1.053E+01	 4.583E-01	 1.235E+06
         0.6200	 1.130E+01	 3.360E+05	-5.652E+02	-1.322E+04	 1.044E+06	 2.918E+06	 2.159E+06	 1.053E+01	 4.584E-01	 1.235E+06
         0.6400	 1.130E+01	 3.361E+05	-9.711E+02	-1.329E+04	 1.046E+06	 2.976E+06	 2.134E+06	 1.053E+01	 4.593E-01	 1.238E+06
         0.6600	 1.130E+01	 3.362E+05	-1.387E+03	-1.334E+04	 1.048E+06	 3.032E+06	 2.106E+06	 1.053E+01	 4.602E-01	 1.240E+06
         0.6800	 1.130E+01	 3.361E+05	-1.719E+03	-1.314E+04	 1.048E+06	 3.069E+06	 2.033E+06	 1.053E+01	 4.602E-01	 1.240E+06
         0.7000	 1.130E+01	 3.362E+05	-2.136E+03	-1.318E+04	 1.050E+06	 3.122E+06	 2.003E+06	 1.053E+01	 4.610E-01	 1.243E+06
         0.7200	 1.130E+01	 3.363E+05	-2.562E+03	-1.320E+04	 1.052E+06	 3.173E+06	 1.971E+06	 1.053E+01	 4.618E-01	 1.245E+06
         0.7400	 1.130E+01	 3.361E+05	-2.857E+03	-1.302E+04	 1.052E+06	 3.199E+06	 1.898E+06	 1.053E+01	 4.619E-01	 1.245E+06
         0.7600	 1.130E+01	 3.362E+05	-3.281E+03	-1.303E+04	 1.053E+06	 3.247E+06	 1.863E+06	 1.053E+01	 4.626E-01	 1.247E+06
         0.7800	 1.130E+01	 3.363E+05	-3.715E+03	-1.302E+04	 1.055E+06	 3.293E+06	 1.827E+06	 1.053E+01	 4.632E-01	 1.248E+06
         0.8000	 1.130E+01	 3.362E+05	-3.970E+03	-1.285E+04	 1.055E+06	 3.307E+06	 1.753E+06	 1.053E+01	 4.632E-01	 1.248E+06
         0.8200	 1.130E+01	 3.362E+05	-4.401E+03	-1.283E+04	 1.056E+06	 3.350E+06	 1.714E+06	 1.053E+01	 4.637E-01	 1.250E+06
         0.8400	 1.130E+01	 3.362E+05	-4.842E+03	-1.279E+04	 1.057E+06	 3.392E+06	 1.674E+06	 1.053E+01	 4.642E-01	 1.251E+06
         0.8600	 1.130E+01	 3.362E+05	-5.058E+03	-1.264E+04	 1.057E+06	 3.393E+06	 1.599E+06	 1.053E+01	 4.641E-01	 1.251E+06
         0.8800	 1.130E+01	 3.362E+05	-5.498E+03	-1.258E+04	 1.058E+06	 3.431E+06	 1.555E+06	 1.053E+01	 4.644E-01	 1.251E+06
         0.9000	 1.130E+01	 3.361E+05	-5.946E+03	-1.251E+04	 1.058E+06	 3.467E+06	 1.510E+06	 1.053E+01	 4.646E-01	 1.252E+06
         0.9200	 1.130E+01	 3.362E+05	-6.115E+03	-1.238E+04	 1.058E+06	 3.457E+06	 1.435E+06	 1.053E+01	 4.644E-01	 1.252E+06
         0.9400	 1.130E+01	 3.361E+05	-6.557E+03	-1.229E+04	 1.058E+06	 3.489E+06	 1.386E+06	 1.053E+01	 4.645E-01	 1.252E+06
         0.9600	 1.130E+01	 3.360E+05	-7.007E+03	-1.219E+04	 1.058E+06	 3.520E+06	 1.336E+06	 1.053E+01	 4.646E-01	 1.252E+06
         0.9800	 1.130E+01	 3.361E+05	-7.128E+03	-1.207E+04	 1.057E+06	 3.498E+06	 1.260E+06	 1.053E+01	 4.643E-01	 1.251E+06
         1.0000	 1.130E+01	 3.360E+05	-7.569E+03	-1.195E+04	 1.057E+06	 3.525E+06	 1.207E+06	 1.053E+01	 4.642E-01	 1.251E+06
         1.0200	 1.130E+01	 3.359E+05	-8.017E+03	-1.182E+04	 1.057E+06	 3.551E+06	 1.153E+06	 1.053E+01	 4.640E-01	 1.251E+06
         1.0400	 1.130E+01	 3.361E+05	-8.091E+03	-1.171E+04	 1.056E+06	 3.516E+06	 1.075E+06	 1.053E+01	 4.636E-01	 1.249E+06
         1.0600	 1.130E+01	 3.359E+05	-8.530E+03	-1.157E+04	 1.055E+06	 3.538E+06	 1.018E+06	 1.053E+01	 4.632E-01	 1.248E+06
         1.0800	 1.130E+01	 3.358E+05	-8.973E+03	-1.142E+04	 1.054E+06	 3.558E+06	 9.592E+05	 1.053E+01	 4.629E-01	 1.247E+06
         1.1000	 1.130E+01	 3.360E+05	-8.996E+03	-1.132E+04	 1.053E+06	 3.512E+06	 8.807E+05	 1.053E+01	 4.624E-01	 1.246E+06
         1.1200	 1.130E+01	 3.358E+05	-9.427E+03	-1.115E+04	 1.052E+06	 3.529E+06	 8.194E+05	 1.053E+01	 4.620E-01	 1.245E+06
         1.1400	 1.130E+01	 3.357E+05	-9.863E+03	-1.096E+04	 1.051E+06	 3.544E+06	 7.563E+05	 1.053E+01	 4.615E-01	 1.244E+06
         1.1600	 1.130E+01	 3.359E+05	-9.837E+03	-1.086E+04	 1.050E+06	 3.487E+06	 6.767E+05	 1.053E+01	 4.610E-01	 1.242E+06
         1.1800	 1.130E+01	 3.357E+05	-1.026E+04	-1.066E+04	 1.049E+06	 3.499E+06	 6.112E+05	 1.053E+01	 4.605E-01	 1.241E+06
         1.2000	 1.130E+01	 3.355E+05	-1.069E+04	-1.045E+04	 1.047E+06	 3.508E+06	 5.441E+05	 1.053E+01	 4.598E-01	 1.239E+06
         1.2200	 1.130E+01	 3.358E+05	-1.062E+04	-1.035E+04	 1.046E+06	 3.442E+06	 4.632E+05	 1.053E+01	 4.592E-01	 1.238E+06
         1.2400	 1.130E+01	 3.356E+05	-1.103E+04	-1.013E+04	 1.044E+06	 3.448E+06	 3.940E+05	 1.053E+01	 4.585E-01	 1.236E+06
         1.2600	 1.130E+01	 3.354E+05	-1.144E+04	-9.896E+03	 1.043E+06	 3.452E+06	 3.233E+05	 1.053E+01	 4.578E-01	 1.234E+06
         1.2800	 1.130E+01	 3.357E+05	-1.132E+04	-9.794E+03	 1.041E+06	 3.376E+06	 2.415E+05	 1.053E+01	 4.570E-01	 1.232E+06
         1.3000	 1.130E+01	 3.355E+05	-1.171E+04	-9.551E+03	 1.039E+06	 3.377E+06	 1.689E+05	 1.053E+01	 4.562E-01	 1.230E+06
         1.3200	 1.130E+01	 3.354E+05	-1.211E+04	-9.301E+03	 1.037E+06	 3.377E+06	 9.529E+04	 1.053E+01	 4.554E-01	 1.227E+06
         1.3400	 1.130E+01	 3.357E+05	-1.194E+04	-9.207E+03	 1.035E+06	 3.292E+06	 1.280E+04	 1.053E+01	 4.545E-01	 1.225E+06
         1.3600	 1.130E+01	 3.356E+05	-1.232E+04	-8.949E+03	 1.033E+06	 3.289E+06	-6.254E+04	 1.053E+01	 4.536E-01	 1.223E+06
         1.3800	 1.130E+01	 3.354E+05	-1.271E+04	-8.671E+03	 1.031E+06	 3.284E+06	-1.394E+05	 1.053E+01	 4.528E-01	 1.220E+06
         1.4000	 1.130E+01	 3.356E+05	-1.251E+04	-8.548E+03	 1.029E+06	 3.193E+06	-2.235E+05	 1.053E+01	 4.518E-01	 1.218E+06
         1.4200	 1.130E+01	 3.354E+05	-1.288E+04	-8.253E+03	 1.027E+06	 3.185E+06	-3.023E+05	 1.053E+01	 4.509E-01	 1.215E+06
         1.4400	 1.130E+01	 3.353E+05	-1.323E+04	-7.965E+03	 1.025E+06	 3.176E+06	-3.812E+05	 1.053E+01	 4.502E-01	 1.213E+06
         1.4600	 1.130E+01	 3.356E+05	-1.297E+04	-7.859E+03	 1.023E+06	 3.077E+06	-4.644E+05	 1.053E+01	 4.492E-01	 1.211E+06
         1.4800	 1.130E+01	 3.355E+05	-1.331E+04	-7.558E+03	 1.021E+06	 3.064E+06	-5.445E+05	 1.053E+01	 4.484E-01	 1.208E+06
         1.5000	 1.130E+01	 3.353E+05	-1.366E+04	-7.231E+03	 1.019E+06	 3.051E+06	-6.261E+05	 1.053E+01	 4.476E-01	 1.206E+06
         1.5200	 1.130E+01	 3.355E+05	-1.338E+04	-7.089E+03	 1.017E+06	 2.947E+06	-7.103E+05	 1.053E+01	 4.466E-01	 1.204E+06
         1.5400	 1.130E+01	 3.355E+05	-1.370E+04	-6.780E+03	 1.016E+06	 2.932E+06	-7.916E+05	 1.053E+01	 4.461E-01	 1.202E+06
         1.5600	 1.130E+01	 3.353E+05	-1.403E+04	-6.429E+03	 1.014E+06	 2.915E+06	-8.751E+05	 1.053E+01	 4.452E-01	 1.200E+06
         1.5800	 1.130E+01	 3.354E+05	-1.370E+04	-6.278E+03	 1.012E+06	 2.806E+06	-9.589E+05	 1.053E+01	 4.441E-01	 1.197E+06
         1.6000	 1.130E+01	 3.355E+05	-1.396E+04	-5.972E+03	 1.011E+06	 2.785E+06	-1.040E+06	 1.053E+01	 4.439E-01	 1.196E+06
         1.6200	 1.130E+01	 3.356E+05	-1.426E+04	-5.638E+03	 1.010E+06	 2.764E+06	-1.123E+06	 1.053E+01	 4.436E-01	 1.196E+06
         1.6400	 1.130E+01	 3.356E+05	-1.392E+04	-5.460E+03	 1.008E+06	 2.653E+06	-1.206E+06	 1.053E+01	 4.426E-01	 1.193E+06
         1.6600	 1.130E+01	 3.357E+05	-1.417E+04	-5.128E+03	 1.008E+06	 2.629E+06	-1.288E+06	 1.053E+01	 4.424E-01	 1.192E+06
         1.6800	 1.130E+01	 3.358E+05	-1.445E+04	-4.776E+03	 1.007E+06	 2.606E+06	-1.371E+06	 1.053E+01	 4.422E-01	 1.192E+06
         1.7000	 1.130E+01	 3.357E+05	-1.411E+04	-4.570E+03	 1.005E+06	 2.493E+06	-1.454E+06	 1.053E+01	 4.412E-01	 1.189E+06
         1.7200	 1.130E+01	 3.358E+05	-1.437E+04	-4.215E+03	 1.005E+06	 2.469E+06	-1.537E+06	 1.053E+01	 4.414E-01	 1.189E+06
         1.7400	 1.130E+01	 3.359E+05	-1.457E+04	-3.877E+03	 1.007E+06	 2.441E+06	-1.619E+06	 1.053E+01	 4.420E-01	 1.191E+06
         1.7600	 1.130E+01	 3.359E+05	-1.416E+04	-3.713E+03	 1.007E+06	 2.326E+06	-1.698E+06	 1.053E+01	 4.421E-01	 1.191E+06
         1.7800	 1.130E+01	 3.360E+05	-1.439E+04	-3.365E+03	 1.009E+06	 2.299E+06	-1.780E+06	 1.053E+01	 4.430E-01	 1.194E+06
         1.8000	 1.130E+01	 3.361E+05	-1.458E+04	-3.010E+03	 1.011E+06	 2.269E+06	-1.862E+06	 1.053E+01	 4.438E-01	 1.196E+06
         1.8200	 1.130E+01	 3.360E+05	-1.412E+04	-2.816E+03	 1.010E+06	 2.151E+06	-1.937E+06	 1.053E+01	 4.435E-01	 1.195E+06
         1.8400	 1.130E+01	 3.360E+05	-1.431E+04	-2.434E+03	 1.011E+06	 2.121E+06	-2.018E+06	 1.053E+01	 4.440E-01	 1.197E+06
         1.8600	 1.130E+01	 3.362E+05	-1.448E+04	-2.056E+03	 1.013E+06	 2.089E+06	-2.098E+06	 1.053E+01	 4.446E-01	 1.198E+06
         1.8800	 1.130E+01	 3.361E+05	-1.400E+04	-1.845E+03	 1.012E+06	 1.970E+06	-2.168E+06	 1.053E+01	 4.441E-01	 1.197E+06
         1.9000	 1.130E+01	 3.362E+05	-1.413E+04	-1.458E+03	 1.013E+06	 1.936E+06	-2.246E+06	 1.053E+01	 4.447E-01	 1.198E+06
         1.9200	 1.130E+01	 3.364E+05	-1.431E+04	-1.062E+03	 1.015E+06	 1.903E+06	-2.324E+06	 1.053E+01	 4.455E-01	 1.201E+06
         1.9400	 1.130E+01	 3.362E+05	-1.387E+04	-8.243E+02	 1.014E+06	 1.787E+06	-2.391E+06	 1.053E+01	 4.452E-01	 1.200E+06
         1.9600	 1.130E+01	 3.364E+05	-1.397E+04	-4.328E+02	 1.016E+06	 1.751E+06	-2.467E+06	 1.053E+01	 4.460E-01	 1.202E+06
         1.9800	 1.130E+01	 3.366E+05	-1.409E+04	-3.712E+01	 1.018E+06	 1.715E+06	-2.541E+06	 1.053E+01	 4.469E-01	 1.204E+06
         2.0000	 1.130E+01	 3.364E+05	-1.365E+04	 2.063E+02	 1.017E+06	 1.601E+06	-2.602E+06	 1.053E+01	 4.467E-01	 1.204E+06
         2.0200	 1.130E+01	 3.366E+05	-1.374E+04	 6.038E+02	 1.019E+06	 1.564E+06	-2.674E+06	 1.053E+01	 4.476E-01	 1.206E+06
         2.0400	 1.130E+01	 3.368E+05	-1.381E+04	 1.008E+03	 1.021E+06	 1.524E+06	-2.746E+06	 1.053E+01	 4.485E-01	 1.209E+06
         2.0600	 1.130E+01	 3.365E+05	-1.335E+04	 1.260E+03	 1.021E+06	 1.412E+06	-2.800E+06	 1.053E+01	 4.482E-01	 1.208E+06
         2.0800	 1.130E+01	 3.367E+05	-1.341E+04	 1.662E+03	 1.023E+06	 1.373E+06	-2.869E+06	 1.053E+01	 4.492E-01	 1.211E+06
         2.1000	 1.130E+01	 3.369E+05	-1.346E+04	 2.067E+03	 1.025E+06	 1.332E+06	-2.936E+06	 1.053E+01	 4.502E-01	 1.213E+06
         2.1200	 1.130E+01	 3.366E+05	-1.302E+04	 2.317E+03	 1.025E+06	 1.223E+06	-2.983E+06	 1.053E+01	 4.500E-01	 1.213E+06
         2.1400	 1.130E+01	 3.368E+05	-1.303E+04	 2.720E+03	 1.027E+06	 1.181E+06	-3.047E+06	 1.053E+01	 4.510E-01	 1.216E+06
         2.1600	 1.130E+01	 3.369E+05	-1.304E+04	 3.127E+03	 1.030E+06	 1.138E+06	-3.110E+06	 1.053E+01	 4.521E-01	 1.218E+06
         2.1800	 1.130E+01	 3.366E+05	-1.260E+04	 3.375E+03	 1.029E+06	 1.032E+06	-3.149E+06	 1.053E+01	 4.520E-01	 1.218E+06
         2.2000	 1.130E+01	 3.368E+05	-1.259E+04	 3.779E+03	 1.032E+06	 9.891E+05	-3.209E+06	 1.053E+01	 4.530E-01	 1.221E+06
         2.2200	 1.130E+01	 3.370E+05	-1.258E+04	 4.187E+03	 1.034E+06	 9.450E+05	-3.266E+06	 1.053E+01	 4.542E-01	 1.224E+06
         2.2400	 1.130E+01	 3.367E+05	-1.216E+04	 4.428E+03	 1.034E+06	 8.440E+05	-3.297E+06	 1.053E+01	 4.541E-01	 1.224E+06
         2.2600	 1.130E+01	 3.369E+05	-1.212E+04	 4.830E+03	 1.037E+06	 7.994E+05	-3.351E+06	 1.053E+01	 4.552E-01	 1.227E+06
         2.2800	 1.130E+01	 3.371E+05	-1.206E+04	 5.223E+03	 1.039E+06	 7.534E+05	-3.403E+06	 1.053E+01	 4.563E-01	 1.230E+06
         2.3000	 1.130E+01	 3.368E+05	-1.165E+04	 5.438E+03	 1.039E+06	 6.566E+05	-3.424E+06	 1.053E+01	 4.564E-01	 1.230E+06
         2.3200	 1.130E+01	 3.370E+05	-1.157E+04	 5.827E+03	 1.042E+06	 6.102E+05	-3.473E+06	 1.053E+01	 4.575E-01	 1.233E+06
         2.3400	 1.130E+01	 3.371E+05	-1.148E+04	 6.220E+03	 1.044E+06	 5.626E+05	-3.519E+06	 1.053E+01	 4.586E-01	 1.236E+06
         2.3600	 1.130E+01	 3.369E+05	-1.109E+04	 6.423E+03	 1.045E+06	 4.709E+05	-3.530E+06	 1.053E+01	 4.586E-01	 1.236E+06
         2.3800	 1.130E+01	 3.370E+05	-1.098E+04	 6.810E+03	 1.047E+06	 4.231E+05	-3.572E+06	 1.053E+01	 4.597E-01	 1.239E+06
         2.4000	 1.130E+01	 3.372E+05	-1.085E+04	 7.202E+03	 1.049E+06	 3.740E+05	-3.612E+06	 1.053E+01	 4.607E-01	 1.242E+06
         2.4200	 1.130E+01	 3.370E+05	-1.049E+04	 7.389E+03	 1.049E+06	 2.877E+05	-3.613E+06	 1.053E+01	 4.608E-01	 1.242E+06
         2.4400	 1.130E+01	 3.371E+05	-1.035E+04	 7.773E+03	 1.052E+06	 2.385E+05	-3.649E+06	 1.053E+01	 4.617E-01	 1.244E+06
         2.4600	 1.130E+01	 3.372E+05	-1.020E+04	 8.162E+03	 1.054E+06	 1.879E+05	-3.683E+06	 1.053E+01	 4.626E-01	 1.247E+06
         2.4800	 1.130E+01	 3.371E+05	-9.869E+03	 8.329E+03	 1.054E+06	 1.072E+05	-3.673E+06	 1.053E+01	 4.626E-01	 1.247E+06
         2.5000	 1.130E+01	 3.371E+05	-9.696E+03	 8.708E+03	 1.055E+06	 5.634E+04	-3.702E+06	 1.053E+01	 4.634E-01	 1.249E+06
         2.5200	 1.130E+01	 3.372E+05	-9.509E+03	 9.091E+03	 1.057E+06	 4.188E+03	-3.729E+06	 1.053E+01	 4.642E-01	 1.251E+06
         2.5400	 1.130E+01	 3.371E+05	-9.213E+03	 9.233E+03	 1.057E+06	-7.097E+04	-3.708E+06	 1.053E+01	 4.642E-01	 1.251E+06
         2.5600	 1.130E+01	 3.372E+05	-9.009E+03	 9.605E+03	 1.059E+06	-1.233E+05	-3.731E+06	 1.053E+01	 4.648E-01	 1.253E+06
         2.5800	 1.130E+01	 3.372E+05	-8.790E+03	 9.980E+03	 1.060E+06	-1.771E+05	-3.752E+06	 1.053E+01	 4.654E-01	 1.254E+06
         2.6000	 1.130E+01	 3.372E+05	-8.530E+03	 1.009E+04	 1.060E+06	-2.466E+05	-3.720E+06	 1.053E+01	 4.654E-01	 1.254E+06
         2.6200	 1.130E+01	 3.372E+05	-8.296E+03	 1.046E+04	 1.061E+06	-3.005E+05	-3.736E+06	 1.053E+01	 4.658E-01	 1.255E+06
         2.6400	 1.130E+01	 3.371E+05	-8.041E+03	 1.083E+04	 1.062E+06	-3.560E+05	-3.751E+06	 1.053E+01	 4.662E-01	 1.256E+06
         2.6600	 1.130E+01	 3.372E+05	-7.815E+03	 1.096E+04	 1.062E+06	-4.206E+05	-3.714E+06	 1.053E+01	 4.661E-01	 1.256E+06
         2.6800	 1.130E+01	 3.371E+05	-7.541E+03	 1.129E+04	 1.062E+06	-4.761E+05	-3.718E+06	 1.053E+01	 4.663E-01	 1.257E+06
         2.7000	 1.130E+01	 3.370E+05	-7.256E+03	 1.162E+04	 1.062E+06	-5.325E+05	-3.722E+06	 1.053E+01	 4.663E-01	 1.257E+06
         2.7200	 1.130E+01	 3.371E+05	-7.065E+03	 1.172E+04	 1.062E+06	-5.922E+05	-3.675E+06	 1.053E+01	 4.662E-01	 1.257E+06
         2.7400	 1.130E+01	 3.370E+05	-6.767E+03	 1.204E+04	 1.062E+06	-6.491E+05	-3.673E+06	 1.053E+01	 4.662E-01	 1.256E+06
         2.7600	 1.130E+01	 3.368E+05	-6.457E+03	 1.236E+04	 1.061E+06	-7.067E+05	-3.670E+06	 1.053E+01	 4.660E-01	 1.256E+06
         2.7800	 1.130E+01	 3.370E+05	-6.299E+03	 1.242E+04	 1.061E+06	-7.615E+05	-3.612E+06	 1.053E+01	 4.658E-01	 1.255E+06
         2.8000	 1.130E+01	 3.368E+05	-5.978E+03	 1.273E+04	 1.060E+06	-8.196E+05	-3.604E+06	 1.053E+01	 4.655E-01	 1.255E+06
         2.8200	 1.130E+01	 3.367E+05	-5.646E+03	 1.303E+04	 1.059E+06	-8.783E+05	-3.594E+06	 1.053E+01	 4.651E-01	 1.253E+06
         2.8400	 1.130E+01	 3.369E+05	-5.520E+03	 1.305E+04	 1.058E+06	-9.284E+05	-3.525E+06	 1.053E+01	 4.647E-01	 1.252E+06
         2.8600	 1.130E+01	 3.367E+05	-5.176E+03	 1.334E+04	 1.057E+06	-9.875E+05	-3.510E+06	 1.053E+01	 4.643E-01	 1.251E+06
         2.8800	 1.130E+01	 3.365E+05	-4.822E+03	 1.362E+04	 1.056E+06	-1.047E+06	-3.493E+06	 1.053E+01	 4.638E-01	 1.250E+06
         2.9000	 1.130E+01	 3.368E+05	-4.722E+03	 1.360E+04	 1.055E+06	-1.093E+06	-3.414E+06	 1.053E+01	 4.634E-01	 1.249E+06
         2.9200	 1.130E+01	 3.366E+05	-4.357E+03	 1.387E+04	 1.054E+06	-1.153E+06	-3.392E+06	 1.053E+01	 4.629E-01	 1.247E+06
         2.9400	 1.130E+01	 3.364E+05	-3.984E+03	 1.413E+04	 1.053E+06	-1.213E+06	-3.369E+06	 1.053E+01	 4.622E-01	 1.246E+06
         2.9600	 1.130E+01	 3.366E+05	-3.907E+03	 1.407E+04	 1.052E+06	-1.255E+06	-3.280E+06	 1.053E+01	 4.617E-01	 1.244E+06
         2.9800	 1.130E+01	 3.364E+05	-3.523E+03	 1.431E+04	 1.050E+06	-1.316E+06	-3.252E+06	 1.053E+01	 4.610E-01	 1.242E+06
         3.0000	 1.130E+01	 3.362E+05	-3.134E+03	 1.455E+04	 1.048E+06	-1.377E+06	-3.222E+06	 1.053E+01	 4.603E-01	 1.240E+06
         3.0200	 1.130E+01	 3.365E+05	-3.080E+03	 1.444E+04	 1.047E+06	-1.415E+06	-3.124E+06	 1.053E+01	 4.596E-01	 1.239E+06
         3.0400	 1.130E+01	 3.363E+05	-2.683E+03	 1.467E+04	 1.045E+06	-1.476E+06	-3.089E+06	 1.053E+01	 4.588E-01	 1.237E+06
         3.0600	 1.130E+01	 3.361E+05	-2.281E+03	 1.488E+04	 1.043E+06	-1.538E+06	-3.053E+06	 1.053E+01	 4.580E-01	 1.234E+06
         3.0800	 1.130E+01	 3.364E+05	-2.250E+03	 1.473E+04	 1.041E+06	-1.572E+06	-2.947E+06	 1.053E+01	 4.573E-01	 1.232E+06
         3.1000	 1.130E+01	 3.362E+05	-1.849E+03	 1.493E+04	 1.039E+06	-1.634E+06	-2.907E+06	 1.053E+01	 4.564E-01	 1.230E+06
         3.1200	 1.130E+01	 3.360E+05	-1.446E+03	 1.512E+04	 1.037E+06	-1.695E+06	-2.865E+06	 1.053E+01	 4.554E-01	 1.227E+06
         3.1400	 1.130E+01	 3.364E+05	-1.431E+03	 1.494E+04	 1.035E+06	-1.726E+06	-2.752E+06	 1.053E+01	 4.546E-01	 1.225E+06
         3.1600	 1.130E+01	 3.361E+05	-1.005E+03	 1.511E+04	 1.033E+06	-1.788E+06	-2.706E+06	 1.053E+01	 4.536E-01	 1.223E+06
         3.1800	 1.130E+01	 3.359E+05	-5.721E+02	 1.528E+04	 1.031E+06	-1.851E+06	-2.660E+06	 1.053E+01	 4.527E-01	 1.220E+06
         3.2000	 1.130E+01	 3.361E+05	-5.618E+02	 1.505E+04	 1.029E+06	-1.880E+06	-2.540E+06	 1.053E+01	 4.517E-01	 1.217E+06
         3.2200	 1.130E+01	 3.360E+05	-1.575E+02	 1.520E+04	 1.027E+06	-1.941E+06	-2.489E+06	 1.053E+01	 4.509E-01	 1.215E+06
         3.2400	 1.130E+01	 3.359E+05	 2.500E+02	 1.533E+04	 1.025E+06	-2.001E+06	-2.437E+06	 1.053E+01	 4.501E-01	 1.213E+06
         3.2600	 1.130E+01	 3.361E+05	 2.605E+02	 1.507E+04	 1.023E+06	-2.028E+06	-2.312E+06	 1.053E+01	 4.491E-01	 1.210E+06
         3.2800	 1.130E+01	 3.359E+05	 6.994E+02	 1.519E+04	 1.021E+06	-2.089E+06	-2.257E+06	 1.053E+01	 4.483E-01	 1.208E+06
         3.3000	 1.130E+01	 3.359E+05	 1.116E+03	 1.530E+04	 1.020E+06	-2.150E+06	-2.202E+06	 1.053E+01	 4.476E-01	 1.206E+06
         3.3200	 1.130E+01	 3.361E+05	 1.120E+03	 1.501E+04	 1.017E+06	-2.174E+06	-2.072E+06	 1.053E+01	 4.466E-01	 1.204E+06
         3.3400	 1.130E+01	 3.358E+05	 1.571E+03	 1.510E+04	 1.015E+06	-2.235E+06	-2.013E+06	 1.053E+01	 4.457E-01	 1.201E+06
         3.3600	 1.130E+01	 3.358E+05	 1.961E+03	 1.516E+04	 1.014E+06	-2.293E+06	-1.953E+06	 1.053E+01	 4.452E-01	 1.200E+06
         3.3800	 1.130E+01	 3.361E+05	 1.932E+03	 1.482E+04	 1.012E+06	-2.313E+06	-1.820E+06	 1.053E+01	 4.445E-01	 1.198E+06
         3.4000	 1.130E+01	 3.360E+05	 2.372E+03	 1.490E+04	 1.011E+06	-2.373E+06	-1.759E+06	 1.053E+01	 4.441E-01	 1.197E+06
         3.4200	 1.130E+01	 3.360E+05	 2.792E+03	 1.494E+04	 1.010E+06	-2.431E+06	-1.695E+06	 1.053E+01	 4.437E-01	 1.196E+06
         3.4400	 1.130E+01	 3.362E+05	 2.765E+03	 1.457E+04	 1.009E+06	-2.449E+06	-1.561E+06	 1.053E+01	 4.429E-01	 1.194E+06
         3.4600	 1.130E+01	 3.363E+05	 3.228E+03	 1.466E+04	 1.008E+06	-2.509E+06	-1.499E+06	 1.053E+01	 4.427E-01	 1.193E+06
         3.4800	 1.130E+01	 3.362E+05	 3.666E+03	 1.468E+04	 1.008E+06	-2.567E+06	-1.434E+06	 1.053E+01	 4.425E-01	 1.193E+06
         3.5000	 1.130E+01	 3.362E+05	 3.635E+03	 1.427E+04	 1.007E+06	-2.582E+06	-1.297E+06	 1.053E+01	 4.422E-01	 1.192E+06
         3.5200	 1.130E+01	 3.362E+05	 4.007E+03	 1.427E+04	 1.009E+06	-2.637E+06	-1.230E+06	 1.053E+01	 4.430E-01	 1.194E+06
         3.5400	 1.130E+01	 3.364E+05	 4.397E+03	 1.428E+04	 1.011E+06	-2.693E+06	-1.164E+06	 1.053E+01	 4.439E-01	 1.196E+06
         3.5600	 1.130E+01	 3.363E+05	 4.383E+03	 1.387E+04	 1.011E+06	-2.707E+06	-1.030E+06	 1.053E+01	 4.439E-01	 1.196E+06
         3.5800	 1.130E+01	 3.363E+05	 4.755E+03	 1.382E+04	 1.012E+06	-2.759E+06	-9.600E+05	 1.053E+01	 4.446E-01	 1.198E+06
         3.6000	 1.130E+01	 3.364E+05	 5.148E+03	 1.377E+04	 1.014E+06	-2.811E+06	-8.913E+05	 1.053E+01	 4.450E-01	 1.199E+06
         3.6200	 1.130E+01	 3.363E+05	 5.156E+03	 1.332E+04	 1.013E+06	-2.821E+06	-7.575E+05	 1.053E+01	 4.446E-01	 1.198E+06
         3.6400	 1.130E+01	 3.364E+05	 5.534E+03	 1.325E+04	 1.014E+06	-2.870E+06	-6.872E+05	 1.053E+01	 4.451E-01	 1.200E+06
         3.6600	 1.130E+01	 3.365E+05	 5.903E+03	 1.315E+04	 1.015E+06	-2.918E+06	-6.161E+05	 1.053E+01	 4.456E-01	 1.201E+06
         3.6800	 1.130E+01	 3.364E+05	 5.920E+03	 1.269E+04	 1.014E+06	-2.924E+06	-4.852E+05	 1.053E+01	 4.453E-01	 1.200E+06
         3.7000	 1.130E+01	 3.366E+05	 6.327E+03	 1.262E+04	 1.016E+06	-2.972E+06	-4.159E+05	 1.053E+01	 4.460E-01	 1.202E+06
         3.7200	 1.130E+01	 3.367E+05	 6.710E+03	 1.251E+04	 1.018E+06	-3.018E+06	-3.453E+05	 1.053E+01	 4.468E-01	 1.204E+06
         3.7400	 1.130E+01	 3.365E+05	 6.715E+03	 1.202E+04	 1.017E+06	-3.020E+06	-2.167E+05	 1.053E+01	 4.466E-01	 1.204E+06
         3.7600	 1.130E+01	 3.367E+05	 7.104E+03	 1.192E+04	 1.019E+06	-3.064E+06	-1.470E+05	 1.053E+01	 4.474E-01	 1.206E+06
         3.7800	 1.130E+01	 3.370E+05	 7.483E+03	 1.180E+04	 1.021E+06	-3.106E+06	-7.690E+04	 1.053E+01	 4.483E-01	 1.208E+06
         3.8000	 1.130E+01	 3.367E+05	 7.492E+03	 1.130E+04	 1.020E+06	-3.103E+06	 4.748E+04	 1.053E+01	 4.481E-01	 1.208E+06
         3.8200	 1.130E+01	 3.368E+05	 7.861E+03	 1.114E+04	 1.022E+06	-3.143E+06	 1.181E+05	 1.053E+01	 4.489E-01	 1.210E+06
         3.8400	 1.130E+01	 3.370E+05	 8.227E+03	 1.098E+04	 1.024E+06	-3.181E+06	 1.884E+05	 1.053E+01	 4.498E-01	 1.212E+06
         3.8600	 1.130E+01	 3.367E+05	 8.245E+03	 1.049E+04	 1.024E+06	-3.174E+06	 3.068E+05	 1.053E+01	 4.496E-01	 1.212E+06
         3.8800	 1.130E+01	 3.369E+05	 8.604E+03	 1.032E+04	 1.026E+06	-3.209E+06	 3.765E+05	 1.053E+01	 4.506E-01	 1.214E+06
         3.9000	 1.130E+01	 3.371E+05	 8.951E+03	 1.013E+04	 1.028E+06	-3.242E+06	 4.464E+05	 1.053E+01	 4.515E-01	 1.217E+06
         3.9200	 1.130E+01	 3.368E+05	 8.967E+03	 9.637E+03	 1.028E+06	-3.230E+06	 5.589E+05	 1.053E+01	 4.514E-01	 1.217E+06
         3.9400	 1.130E+01	 3.369E+05	 9.308E+03	 9.432E+03	 1.030E+06	-3.259E+06	 6.279E+05	 1.053E+01	 4.524E-01	 1.219E+06
         3.9600	 1.130E+01	 3.371E+05	 9.642E+03	 9.214E+03	 1.033E+06	-3.288E+06	 6.967E+05	 1.053E+01	 4.535E-01	 1.222E+06
         3.9800	 1.130E+01	 3.368E+05	 9.653E+03	 8.739E+03	 1.033E+06	-3.270E+06	 8.015E+05	 1.053E+01	 4.535E-01	 1.222E+06
         4.0000	 1.130E+01	 3.370E+05	 9.974E+03	 8.516E+03	 1.035E+06	-3.295E+06	 8.689E+05	 1.053E+01	 4.546E-01	 1.225E+06
         4.0200	 1.130E+01	 3.372E+05	 1.028E+04	 8.275E+03	 1.038E+06	-3.318E+06	 9.361E+05	 1.053E+01	 4.557E-01	 1.228E+06
         4.0400	 1.130E+01	 3.369E+05	 1.029E+04	 7.818E+03	 1.038E+06	-3.295E+06	 1.033E+06	 1.053E+01	 4.557E-01	 1.228E+06
         4.0600	 1.130E+01	 3.371E+05	 1.059E+04	 7.565E+03	 1.040E+06	-3.315E+06	 1.099E+06	 1.053E+01	 4.568E-01	 1.231E+06
         4.0800	 1.130E+01	 3.372E+05	 1.088E+04	 7.293E+03	 1.043E+06	-3.332E+06	 1.165E+06	 1.053E+01	 4.578E-01	 1.234E+06
         4.1000	 1.130E+01	 3.370E+05	 1.090E+04	 6.855E+03	 1.043E+06	-3.303E+06	 1.253E+06	 1.053E+01	 4.579E-01	 1.234E+06
         4.1200	 1.130E+01	 3.371E+05	 1.118E+04	 6.573E+03	 1.045E+06	-3.316E+06	 1.317E+06	 1.053E+01	 4.590E-01	 1.237E+06
         4.1400	 1.130E+01	 3.373E+05	 1.145E+04	 6.275E+03	 1.048E+06	-3.327E+06	 1.381E+06	 1.053E+01	 4.599E-01	 1.240E+06
         4.1600	 1.130E+01	 3.371E+05	 1.146E+04	 5.867E+03	 1.048E+06	-3.292E+06	 1.460E+06	 1.053E+01	 4.600E-01	 1.240E+06
         4.1800	 1.130E+01	 3.372E+05	 1.173E+04	 5.561E+03	 1.050E+06	-3.299E+06	 1.522E+06	 1.053E+01	 4.610E-01	 1.242E+06
         4.2000	 1.130E+01	 3.373E+05	 1.198E+04	 5.239E+03	 1.052E+06	-3.305E+06	 1.584E+06	 1.053E+01	 4.619E-01	 1.245E+06
         4.2200	 1.130E+01	 3.371E+05	 1.199E+04	 4.864E+03	 1.052E+06	-3.263E+06	 1.653E+06	 1.053E+01	 4.620E-01	 1.245E+06
         4.2400	 1.130E+01	 3.372E+05	 1.224E+04	 4.533E+03	 1.054E+06	-3.264E+06	 1.714E+06	 1.053E+01	 4.628E-01	 1.247E+06
         4.2600	 1.130E+01	 3.373E+05	 1.247E+04	 4.186E+03	 1.056E+06	-3.263E+06	 1.773E+06	 1.053E+01	 4.635E-01	 1.249E+06
         4.2800	 1.130E+01	 3.372E+05	 1.248E+04	 3.848E+03	 1.056E+06	-3.215E+06	 1.833E+06	 1.053E+01	 4.636E-01	 1.250E+06
         4.3000	 1.130E+01	 3.372E+05	 1.270E+04	 3.494E+03	 1.057E+06	-3.209E+06	 1.891E+06	 1.053E+01	 4.643E-01	 1.251E+06
         4.3200	 1.130E+01	 3.372E+05	 1.291E+04	 3.124E+03	 1.059E+06	-3.201E+06	 1.949E+06	 1.053E+01	 4.649E-01	 1.253E+06
         4.3400	 1.130E+01	 3.372E+05	 1.291E+04	 2.827E+03	 1.059E+06	-3.147E+06	 1.998E+06	 1.053E+01	 4.650E-01	 1.253E+06
         4.3600	 1.130E+01	 3.372E+05	 1.311E+04	 2.451E+03	 1.060E+06	-3.135E+06	 2.054E+06	 1.053E+01	 4.654E-01	 1.254E+06
         4.3800	 1.130E+01	 3.372E+05	 1.330E+04	 2.061E+03	 1.061E+06	-3.120E+06	 2.109E+06	 1.053E+01	 4.658E-01	 1.255E+06
         4.4000	 1.130E+01	 3.371E+05	 1.330E+04	 1.800E+03	 1.061E+06	-3.059E+06	 2.149E+06	 1.053E+01	 4.658E-01	 1.255E+06
         4.4200	 1.130E+01	 3.371E+05	 1.347E+04	 1.398E+03	 1.061E+06	-3.040E+06	 2.203E+06	 1.053E+01	 4.660E-01	 1.256E+06
         4.4400	 1.130E+01	 3.370E+05	 1.364E+04	 9.816E+02	 1.062E+06	-3.019E+06	 2.256E+06	 1.053E+01	 4.662E-01	 1.256E+06
         4.4600	 1.130E+01	 3.371E+05	 1.362E+04	 7.666E+02	 1.061E+06	-2.951E+06	 2.286E+06	 1.053E+01	 4.660E-01	 1.256E+06
         4.4800	 1.130E+01	 3.370E+05	 1.377E+04	 3.475E+02	 1.062E+06	-2.925E+06	 2.337E+06	 1.053E+01	 4.661E-01	 1.256E+06
         4.5000	 1.130E+01	 3.368E+05	 1.390E+04	-8.436E+01	 1.061E+06	-2.897E+06	 2.388E+06	 1.053E+01	 4.661E-01	 1.256E+06
         4.5200	 1.130E+01	 3.370E+05	 1.387E+04	-2.528E+02	 1.061E+06	-2.822E+06	 2.408E+06	 1.053E+01	 4.658E-01	 1.255E+06
         4.5400	 1.130E+01	 3.368E+05	 1.399E+04	-6.862E+02	 1.061E+06	-2.789E+06	 2.457E+06	 1.053E+01	 4.657E-01	 1.255E+06
         4.5600	 1.130E+01	 3.367E+05	 1.410E+04	-1.131E+03	 1.060E+06	-2.755E+06	 2.506E+06	 1.053E+01	 4.654E-01	 1.254E+06
         4.5800	 1.130E+01	 3.368E+05	 1.406E+04	-1.253E+03	 1.059E+06	-2.673E+06	 2.516E+06	 1.053E+01	 4.650E-01	 1.253E+06
         4.6000	 1.130E+01	 3.367E+05	 1.416E+04	-1.698E+03	 1.058E+06	-2.634E+06	 2.562E+06	 1.053E+01	 4.646E-01	 1.252E+06
         4.6200	 1.130E+01	 3.365E+05	 1.424E+04	-2.152E+03	 1.057E+06	-2.593E+06	 2.609E+06	 1.053E+01	 4.642E-01	 1.251E+06
         4.6400	 1.130E+01	 3.367E+05	 1.417E+04	-2.228E+03	 1.056E+06	-2.504E+06	 2.609E+06	 1.053E+01	 4.638E-01	 1.250E+06
         4.6600	 1.130E+01	 3.365E+05	 1.424E+04	-2.682E+03	 1.055E+06	-2.458E+06	 2.653E+06	 1.053E+01	 4.633E-01	 1.249E+06
         4.6800	 1.130E+01	 3.364E+05	 1.430E+04	-3.144E+03	 1.054E+06	-2.411E+06	 2.697E+06	 1.053E+01	 4.628E-01	 1.247E+06