
Predictions were generated on 22-Aug-2019 at 10:47:49 using AeroDyn_Interface_Subs
 AeroDyn


     Time           	RtSkew    	RtSpeed   	RtAeroPwr 	B1Pitch   	B2Pitch   	B2Pitch   	RtVAvgxh  	RtVAvgyh  	RtVAvgzh  	RTAeroFxh 	RTAeroFyh 	RTAeroFzh 	RTAeroMxh 	RTAeroMyh 	RTAeroMzh 	RtTSR     	RtAeroCp  
      (s)           	(deg)     	(rpm)     	(W)       	(deg)     	(deg)     	(deg)     	(m/s)     	(m/s)     	(m/s)     	(N)       	(N)       	(N)       	(N-m)     	(N-m)     	(N-m)     	(-)       	(-)       
         0.0000	 0.000E+00	 4.500E+00	 1.114E+04	 0.000E+00	 0.000E+00	 0.000E+00	 1.000E+01	 1.081E-16	 3.821E-16	 3.020E+04	 2.241E-13	-3.432E-13	 2.363E+04	 5.875E-11	 5.766E-11	 1.649E+00	 4.724E-03
         0.0200	 0.000E+00	 4.500E+00	 1.114E+04	 0.000E+00	 0.000E+00	 0.000E+00	 1.000E+01	-1.030E-15	 8.207E-16	 3.020E+04	 4.547E-13	-8.571E-15	 2.363E+04	 5.486E-13	 2.910E-11	 1.649E+00	 4.724E-03
         0.0400	 0.000E+00	 4.500E+00	 1.114E+04	 0.000E+00	 0.000E+00	 0.000E+00	 1.000E+01	 1.347E-16	 4.492E-16	 3.020E+04	 4.385E-13	-5.811E-13	 2.363E+04	-8.810E-11	-2.662E-11	 1.649E+00	 4.725E-03
         0.0400	 0.000E+00	 4.500E+00	 1.114E+04	 0.000E+00	 0.000E+00	 0.000E+00	 1.000E+01	-9.243E-16	 9.062E-16	 3.020E+04	 1.447E-13	-6.881E-13	 2.363E+04	-5.488E-11	 8.944E-11	 1.649E+00	 4.725E-03
         0.0800	 0.000E+00	 4.500E+00	 1.114E+04	 0.000E+00	 0.000E+00	 0.000E+00	 1.000E+01	-6.624E-16	 1.112E-15	 3.020E+04	-2.432E-13	-3.300E-13	 2.363E+04	 4.361E-11	-2.056E-12	 1.649E+00	 4.725E-03
         0.1000	 0.000E+00	 4.500E+00	 1.114E+04	 0.000E+00	 0.000E+00	 0.000E+00	 1.000E+01	-8.241E-16	 8.490E-16	 3.020E+04	-9.016E-13	 1.649E-13	 2.363E+04	 9.046E-11	 5.318E-11	 1.649E+00	 4.725E-03
         0.1000	 0.000E+00	 4.500E+00	 1.114E+04	 0.000E+00	 0.000E+00	 0.000E+00	 1.000E+01	-1.580E-15	 3.837E-16	 3.020E+04	-1.552E-13	 2.381E-13	 2.363E+04	 1.260E-11	-3.000E-11	 1.649E+00	 4.725E-03
         0.1400	 0.000E+00	 4.500E+00	 1.114E+04	 0.000E+00	 0.000E+00	 0.000E+00	 1.000E+01	-7.968E-16	 5.492E-16	 3.020E+04	 3.882E-13	-1.433E-13	 2.363E+04	 4.134E-11	-3.231E-11	 1.649E+00	 4.725E-03
         0.1600	 0.000E+00	 4.500E+00	 1.114E+04	 0.000E+00	 0.000E+00	 0.000E+00	 1.000E+01	-7.461E-17	 3.559E-16	 3.020E+04	-3.772E-13	 2.603E-13	 2.363E+04	 5.090E-11	 8.330E-11	 1.649E+00	 4.725E-03
         0.1600	 0.000E+00	 4.500E+00	 1.114E+04	 0.000E+00	 0.000E+00	 0.000E+00	 1.000E+01	-6.838E-16	 1.464E-15	 3.020E+04	-2.900E-14	-9.108E-13	 2.363E+04	 8.217E-12	 8.692E-11	 1.649E+00	 4.725E-03
         0.2000	 0.000E+00	 4.500E+00	 1.114E+04	 0.000E+00	 0.000E+00	 0.000E+00	 1.000E+01	-1.591E-15	 8.659E-16	 3.020E+04	-5.654E-14	 5.883E-15	 2.363E+04	-1.303E-10	 1.355E-11	 1.649E+00	 4.725E-03
         0.2200	 0.000E+00	 4.500E+00	 1.114E+04	 0.000E+00	 0.000E+00	 0.000E+00	 1.000E+01	 2.139E-16	 1.860E-16	 3.020E+04	 2.567E-13	-2.580E-13	 2.363E+04	 9.661E-11	 7.690E-11	 1.649E+00	 4.725E-03
         0.2200	 0.000E+00	 4.500E+00	 1.114E+04	 0.000E+00	 0.000E+00	 0.000E+00	 1.000E+01	-8.430E-16	 2.793E-16	 3.020E+04	-4.939E-13	 1.754E-13	 2.363E+04	 7.954E-11	-6.844E-11	 1.649E+00	 4.725E-03
         0.2600	 0.000E+00	 4.500E+00	 1.114E+04	 0.000E+00	 0.000E+00	 0.000E+00	 1.000E+01	-1.269E-15	 7.657E-16	 3.020E+04	-1.990E-13	-2.030E-13	 2.363E+04	 7.979E-11	 4.813E-11	 1.649E+00	 4.725E-03
         0.2800	 0.000E+00	 4.500E+00	 1.114E+04	 0.000E+00	 0.000E+00	 0.000E+00	 1.000E+01	-2.568E-16	 1.162E-15	 3.020E+04	 1.610E-13	-4.822E-13	 2.363E+04	-1.318E-10	 1.069E-10	 1.649E+00	 4.725E-03
         0.2800	 0.000E+00	 4.500E+00	 1.114E+04	 0.000E+00	 0.000E+00	 0.000E+00	 1.000E+01	-6.447E-16	 6.264E-16	 3.020E+04	 6.964E-13	-3.358E-13	 2.363E+04	-2.402E-10	 6.594E-11	 1.649E+00	 4.725E-03
         0.3200	 0.000E+00	 4.500E+00	 1.114E+04	 0.000E+00	 0.000E+00	 0.000E+00	 1.000E+01	-5.059E-16	 1.564E-15	 3.020E+04	-6.255E-13	-1.292E-13	 2.363E+04	 1.335E-10	 9.635E-11	 1.649E+00	 4.725E-03
         0.3400	 0.000E+00	 4.500E+00	 1.114E+04	 0.000E+00	 0.000E+00	 0.000E+00	 1.000E+01	 7.807E-16	 4.317E-16	 3.020E+04	 1.961E-13	-3.359E-14	 2.363E+04	 9.735E-11	-1.643E-10	 1.649E+00	 4.725E-03
         0.3400	 0.000E+00	 4.500E+00	 1.114E+04	 0.000E+00	 0.000E+00	 0.000E+00	 1.000E+01	-8.146E-16	-1.003E-16	 3.020E+04	 1.534E-13	-1.068E-12	 2.363E+04	 1.629E-11	-3.253E-11	 1.649E+00	 4.725E-03
         0.3800	 0.000E+00	 4.500E+00	 1.114E+04	 0.000E+00	 0.000E+00	 0.000E+00	 1.000E+01	-9.735E-16	 8.413E-18	 3.020E+04	 1.609E-13	 8.504E-14	 2.363E+04	-1.975E-11	-2.586E-11	 1.649E+00	 4.725E-03
         0.4000	 0.000E+00	 4.500E+00	 1.114E+04	 0.000E+00	 0.000E+00	 0.000E+00	 1.000E+01	-6.617E-16	 1.660E-15	 3.020E+04	-6.581E-13	-6.797E-13	 2.363E+04	 6.577E-11	 2.540E-10	 1.649E+00	 4.725E-03
         0.4000	 0.000E+00	 4.500E+00	 1.114E+04	 0.000E+00	 0.000E+00	 0.000E+00	 1.000E+01	-2.477E-16	 1.191E-15	 3.020E+04	-1.815E-13	-3.104E-13	 2.363E+04	 2.961E-11	-3.597E-11	 1.649E+00	 4.725E-03
         0.4400	 0.000E+00	 4.500E+00	 1.114E+04	 0.000E+00	 0.000E+00	 0.000E+00	 1.000E+01	-5.212E-16	-9.922E-17	 3.020E+04	 1.421E-13	-1.477E-13	 2.363E+04	-7.224E-11	-1.927E-10	 1.649E+00	 4.725E-03
         0.4600	 0.000E+00	 4.500E+00	 1.114E+04	 0.000E+00	 0.000E+00	 0.000E+00	 1.000E+01	-1.054E-15	 3.139E-16	 3.020E+04	-7.649E-14	-3.324E-13	 2.363E+04	 3.973E-11	 1.402E-10	 1.649E+00	 4.725E-03
         0.4600	 0.000E+00	 4.500E+00	 1.114E+04	 0.000E+00	 0.000E+00	 0.000E+00	 1.000E+01	-1.295E-15	 2.751E-16	 3.020E+04	 3.062E-13	-3.073E-13	 2.363E+04	 6.227E-11	 1.347E-10	 1.649E+00	 4.725E-03
         0.4800	 0.000E+00	 4.500E+00	 1.114E+04	 0.000E+00	 0.000E+00	 0.000E+00	 1.000E+01	-1.225E-15	 1.491E-15	 3.020E+04	 1.103E-13	-2.620E-13	 2.363E+04	-4.236E-11	-1.394E-10	 1.649E+00	 4.725E-03
         0.5200	 0.000E+00	 4.500E+00	 1.114E+04	 0.000E+00	 0.000E+00	 0.000E+00	 1.000E+01	-5.710E-16	 3.645E-16	 3.020E+04	 3.862E-13	 1.702E-14	 2.363E+04	-4.310E-11	-7.901E-11	 1.649E+00	 4.725E-03
         0.5400	 0.000E+00	 4.500E+00	 1.114E+04	 0.000E+00	 0.000E+00	 0.000E+00	 1.000E+01	-5.202E-16	-2.563E-16	 3.020E+04	 2.447E-13	-1.839E-13	 2.363E+04	 8.294E-11	 2.791E-10	 1.649E+00	 4.725E-03
         0.5600	 0.000E+00	 4.500E+00	 1.114E+04	 0.000E+00	 0.000E+00	 0.000E+00	 1.000E+01	-6.352E-16	 2.504E-16	 3.020E+04	 1.642E-13	-4.603E-14	 2.363E+04	-5.950E-12	-2.099E-10	 1.649E+00	 4.725E-03
         0.5600	 0.000E+00	 4.500E+00	 1.114E+04	 0.000E+00	 0.000E+00	 0.000E+00	 1.000E+01	-5.444E-16	 1.029E-15	 3.020E+04	 2.368E-13	-3.056E-13	 2.363E+04	 1.573E-10	-1.366E-10	 1.649E+00	 4.725E-03
         0.5800	 0.000E+00	 4.500E+00	 1.114E+04	 0.000E+00	 0.000E+00	 0.000E+00	 1.000E+01	 6.259E-16	 5.392E-16	 3.020E+04	-5.175E-13	-4.379E-13	 2.363E+04	 5.150E-11	-1.067E-10	 1.649E+00	 4.725E-03
         0.6000	 0.000E+00	 4.500E+00	 1.114E+04	 0.000E+00	 0.000E+00	 0.000E+00	 1.000E+01	 2.487E-16	 5.063E-16	 3.020E+04	 2.714E-14	-8.442E-15	 2.363E+04	 9.573E-11	-1.822E-10	 1.649E+00	 4.725E-03
         0.6400	 0.000E+00	 4.500E+00	 1.114E+04	 0.000E+00	 0.000E+00	 0.000E+00	 1.000E+01	-7.117E-16	 3.751E-16	 3.020E+04	-3.402E-13	-1.295E-13	 2.363E+04	 1.534E-10	-1.410E-10	 1.649E+00	 4.725E-03
         0.6600	 0.000E+00	 4.500E+00	 1.114E+04	 0.000E+00	 0.000E+00	 0.000E+00	 1.000E+01	-5.298E-16	 8.364E-16	 3.020E+04	 2.972E-13	-4.580E-13	 2.363E+04	-1.335E-10	 1.363E-11	 1.649E+00	 4.725E-03
         0.6800	 0.000E+00	 4.500E+00	 1.114E+04	 0.000E+00	 0.000E+00	 0.000E+00	 1.000E+01	 1.089E-16	 1.836E-16	 3.020E+04	-1.285E-14	-4.763E-13	 2.363E+04	 2.213E-10	-2.296E-10	 1.649E+00	 4.725E-03
         0.7000	 0.000E+00	 4.500E+00	 1.114E+04	 0.000E+00	 0.000E+00	 0.000E+00	 1.000E+01	-4.970E-16	 3.970E-16	 3.020E+04	 6.606E-13	 2.491E-13	 2.363E+04	-5.368E-11	-4.278E-11	 1.649E+00	 4.725E-03
         0.7000	 0.000E+00	 4.500E+00	 1.114E+04	 0.000E+00	 0.000E+00	 0.000E+00	 1.000E+01	-1.273E-16	 1.306E-15	 3.020E+04	 5.098E-14	 2.234E-13	 2.363E+04	-4.755E-11	-1.368E-11	 1.649E+00	 4.725E-03
         0.7200	 0.000E+00	 4.500E+00	 1.114E+04	 0.000E+00	 0.000E+00	 0.000E+00	 1.000E+01	-4.249E-16	 1.423E-15	 3.020E+04	-1.595E-13	-3.045E-13	 2.363E+04	 8.160E-11	 2.491E-10	 1.649E+00	 4.725E-03
         0.7600	 0.000E+00	 4.500E+00	 1.114E+04	 0.000E+00	 0.000E+00	 0.000E+00	 1.000E+01	-2.950E-16	 1.681E-15	 3.020E+04	 1.613E-13	 1.815E-13	 2.363E+04	-1.018E-11	 3.922E-12	 1.649E+00	 4.725E-03
         0.7800	 0.000E+00	 4.500E+00	 1.114E+04	 0.000E+00	 0.000E+00	 0.000E+00	 1.000E+01	-4.750E-16	 3.379E-16	 3.020E+04	 4.999E-13	-3.202E-13	 2.363E+04	 2.199E-11	 8.520E-11	 1.649E+00	 4.725E-03
         0.8000	 0.000E+00	 4.500E+00	 1.114E+04	 0.000E+00	 0.000E+00	 0.000E+00	 1.000E+01	-6.252E-16	 1.039E-16	 3.020E+04	 3.291E-13	-1.339E-13	 2.363E+04	-1.943E-11	-8.636E-11	 1.649E+00	 4.725E-03
         0.8200	 0.000E+00	 4.500E+00	 1.114E+04	 0.000E+00	 0.000E+00	 0.000E+00	 1.000E+01	-6.931E-17	 3.310E-16	 3.020E+04	 2.975E-13	 1.221E-13	 2.363E+04	 1.007E-11	-4.208E-12	 1.649E+00	 4.725E-03
         0.8200	 0.000E+00	 4.500E+00	 1.114E+04	 0.000E+00	 0.000E+00	 0.000E+00	 1.000E+01	-5.433E-18	 7.603E-16	 3.020E+04	-4.814E-13	-4.087E-14	 2.363E+04	 1.911E-10	 7.636E-11	 1.649E+00	 4.725E-03
         0.8400	 0.000E+00	 4.500E+00	 1.114E+04	 0.000E+00	 0.000E+00	 0.000E+00	 1.000E+01	-4.492E-16	 6.544E-16	 3.020E+04	 1.233E-13	-1.785E-13	 2.363E+04	-6.804E-12	-6.060E-11	 1.649E+00	 4.725E-03
         0.8800	 0.000E+00	 4.500E+00	 1.114E+04	 0.000E+00	 0.000E+00	 0.000E+00	 1.000E+01	 3.113E-16	 1.231E-17	 3.020E+04	 1.634E-13	 5.098E-14	 2.363E+04	 1.041E-10	-7.892E-11	 1.649E+00	 4.725E-03
         0.9000	 0.000E+00	 4.500E+00	 1.114E+04	 0.000E+00	 0.000E+00	 0.000E+00	 1.000E+01	-1.032E-15	-1.363E-16	 3.020E+04	 3.792E-13	 7.500E-14	 2.363E+04	 2.048E-11	 2.259E-11	 1.649E+00	 4.725E-03
         0.9200	 0.000E+00	 4.500E+00	 1.114E+04	 0.000E+00	 0.000E+00	 0.000E+00	 1.000E+01	 6.669E-16	 1.462E-16	 3.020E+04	 1.812E-13	-4.635E-13	 2.363E+04	 1.334E-10	 1.133E-12	 1.649E+00	 4.725E-03
         0.9400	 0.000E+00	 4.500E+00	 1.114E+04	 0.000E+00	 0.000E+00	 0.000E+00	 1.000E+01	 6.002E-17	 2.032E-16	 3.020E+04	-3.129E-14	 5.208E-13	 2.363E+04	 2.383E-11	-2.381E-10	 1.649E+00	 4.725E-03
         0.9400	 0.000E+00	 4.500E+00	 1.114E+04	 0.000E+00	 0.000E+00	 0.000E+00	 1.000E+01	-1.048E-15	 4.440E-16	 3.020E+04	 3.298E-13	 3.438E-13	 2.363E+04	 5.717E-11	-1.260E-10	 1.649E+00	 4.725E-03
         0.9600	 0.000E+00	 4.500E+00	 1.114E+04	 0.000E+00	 0.000E+00	 0.000E+00	 1.000E+01	 2.162E-16	 5.153E-16	 3.020E+04	 2.191E-13	 3.987E-13	 2.363E+04	-9.763E-11	 2.131E-10	 1.649E+00	 4.725E-03
         1.0000	 0.000E+00	 4.500E+00	 1.114E+04	 0.000E+00	 0.000E+00	 0.000E+00	 1.000E+01	-1.511E-15	-1.019E-15	 3.020E+04	 4.022E-13	-8.153E-14	 2.363E+04	-2.339E-11	 1.220E-11	 1.649E+00	 4.725E-03
         1.0200	 0.000E+00	 4.500E+00	 1.114E+04	 0.000E+00	 0.000E+00	 0.000E+00	 1.000E+01	-6.784E-16	 1.230E-15	 3.020E+04	-9.717E-14	 5.184E-14	 2.363E+04	 5.789E-11	 3.509E-11	 1.649E+00	 4.725E-03
         1.0400	 0.000E+00	 4.500E+00	 1.114E+04	 0.000E+00	 0.000E+00	 0.000E+00	 1.000E+01	 1.705E-16	 1.494E-15	 3.020E+04	-7.005E-14	-9.129E-14	 2.363E+04	 4.575E-11	 1.408E-10	 1.649E+00	 4.725E-03
         1.0600	 0.000E+00	 4.500E+00	 1.114E+04	 0.000E+00	 0.000E+00	 0.000E+00	 1.000E+01	-3.297E-16	 8.221E-16	 3.020E+04	 2.531E-13	 2.494E-13	 2.363E+04	 2.273E-11	-2.126E-10	 1.649E+00	 4.725E-03
         1.0800	 0.000E+00	 4.500E+00	 1.114E+04	 0.000E+00	 0.000E+00	 0.000E+00	 1.000E+01	-4.980E-17	 1.231E-15	 3.020E+04	-5.687E-13	-9.844E-13	 2.363E+04	 3.184E-11	 2.834E-10	 1.649E+00	 4.725E-03
         1.1000	 0.000E+00	 4.500E+00	 1.114E+04	 0.000E+00	 0.000E+00	 0.000E+00	 1.000E+01	-5.597E-16	 1.052E-15	 3.020E+04	 1.830E-13	-6.331E-13	 2.363E+04	 1.384E-13	 2.020E-10	 1.649E+00	 4.725E-03
         1.1200	 0.000E+00	 4.500E+00	 1.114E+04	 0.000E+00	 0.000E+00	 0.000E+00	 1.000E+01	-5.641E-16	 8.225E-16	 3.020E+04	 4.075E-13	-2.427E-13	 2.363E+04	-1.113E-11	-1.289E-10	 1.649E+00	 4.725E-03
         1.1400	 0.000E+00	 4.500E+00	 1.114E+04	 0.000E+00	 0.000E+00	 0.000E+00	 1.000E+01	 8.879E-17	 6.799E-16	 3.020E+04	 3.795E-13	-4.971E-13	 2.363E+04	 5.242E-11	 2.170E-12	 1.649E+00	 4.725E-03
         1.1400	 0.000E+00	 4.500E+00	 1.114E+04	 0.000E+00	 0.000E+00	 0.000E+00	 1.000E+01	 8.389E-16	 1.857E-15	 3.020E+04	 2.961E-13	-3.178E-13	 2.363E+04	 5.527E-11	 1.027E-10	 1.649E+00	 4.725E-03
         1.1600	 0.000E+00	 4.500E+00	 1.114E+04	 0.000E+00	 0.000E+00	 0.000E+00	 1.000E+01	-3.461E-16	 1.210E-15	 3.020E+04	-3.191E-13	 4.718E-13	 2.363E+04	 1.126E-10	-2.511E-12	 1.649E+00	 4.725E-03
         1.1800	 0.000E+00	 4.500E+00	 1.114E+04	 0.000E+00	 0.000E+00	 0.000E+00	 1.000E+01	-3.826E-16	 9.949E-16	 3.020E+04	-2.363E-13	 2.886E-13	 2.363E+04	-9.480E-11	-4.261E-11	 1.649E+00	 4.725E-03
         1.2000	 0.000E+00	 4.500E+00	 1.114E+04	 0.000E+00	 0.000E+00	 0.000E+00	 1.000E+01	-2.818E-17	 7.703E-16	 3.020E+04	 2.262E-13	 1.230E-13	 2.363E+04	 4.968E-11	 7.182E-11	 1.649E+00	 4.725E-03
         1.2200	 0.000E+00	 4.500E+00	 1.114E+04	 0.000E+00	 0.000E+00	 0.000E+00	 1.000E+01	-4.042E-16	 6.930E-16	 3.020E+04	 2.497E-13	-4.429E-13	 2.363E+04	-4.252E-11	 6.381E-11	 1.649E+00	 4.725E-03
         1.2600	 0.000E+00	 4.500E+00	 1.114E+04	 0.000E+00	 0.000E+00	 0.000E+00	 1.000E+01	-7.031E-16	 1.459E-16	 3.020E+04	 4.121E-14	 2.477E-13	 2.363E+04	 6.148E-11	 2.833E-11	 1.649E+00	 4.725E-03
         1.2800	 0.000E+00	 4.500E+00	 1.114E+04	 0.000E+00	 0.000E+00	 0.000E+00	 1.000E+01	-8.646E-16	 3.522E-16	 3.020E+04	-3.008E-13	-2.055E-13	 2.363E+04	 9.227E-11	-6.485E-11	 1.649E+00	 4.725E-03
         1.3000	 0.000E+00	 4.500E+00	 1.114E+04	 0.000E+00	 0.000E+00	 0.000E+00	 1.000E+01	 1.963E-16	 1.402E-15	 3.020E+04	-7.474E-14	-2.262E-13	 2.363E+04	 1.335E-10	 1.550E-10	 1.649E+00	 4.725E-03
         1.3200	 0.000E+00	 4.500E+00	 1.114E+04	 0.000E+00	 0.000E+00	 0.000E+00	 1.000E+01	-3.693E-16	 8.742E-16	 3.020E+04	-2.048E-13	 8.904E-15	 2.363E+04	-3.568E-11	 6.215E-11	 1.649E+00	 4.725E-03
         1.3400	 0.000E+00	 4.500E+00	 1.114E+04	 0.000E+00	 0.000E+00	 0.000E+00	 1.000E+01	-8.461E-16	 1.239E-15	 3.020E+04	-1.018E-13	-2.077E-13	 2.363E+04	-5.550E-11	 7.771E-11	 1.649E+00	 4.725E-03
         1.3600	 0.000E+00	 4.500E+00	 1.114E+04	 0.000E+00	 0.000E+00	 0.000E+00	 1.000E+01	-3.725E-16	 5.459E-16	 3.020E+04	 1.131E-14	-8.604E-15	 2.363E+04	 7.528E-11	-5.727E-11	 1.649E+00	 4.725E-03
         1.3800	 0.000E+00	 4.500E+00	 1.114E+04	 0.000E+00	 0.000E+00	 0.000E+00	 1.000E+01	-4.638E-17	 1.006E-15	 3.020E+04	-4.261E-14	 1.769E-13	 2.363E+04	-3.627E-11	-8.237E-11	 1.649E+00	 4.725E-03
         1.4000	 0.000E+00	 4.500E+00	 1.114E+04	 0.000E+00	 0.000E+00	 0.000E+00	 1.000E+01	-4.307E-16	 1.140E-15	 3.020E+04	-2.156E-13	 4.604E-13	 2.363E+04	 4.571E-11	-1.475E-10	 1.649E+00	 4.725E-03
         1.4000	 0.000E+00	 4.500E+00	 1.114E+04	 0.000E+00	 0.000E+00	 0.000E+00	 1.000E+01	-5.738E-16	 7.311E-16	 3.020E+04	 3.690E-13	 1.406E-13	 2.363E+04	 4.668E-12	-1.159E-10	 1.649E+00	 4.725E-03
         1.4200	 0.000E+00	 4.500E+00	 1.114E+04	 0.000E+00	 0.000E+00	 0.000E+00	 1.000E+01	-1.227E-16	 1.003E-15	 3.020E+04	-3.044E-13	-1.913E-13	 2.363E+04	 2.193E-10	 8.346E-11	 1.649E+00	 4.725E-03
         1.4400	 0.000E+00	 4.500E+00	 1.114E+04	 0.000E+00	 0.000E+00	 0.000E+00	 1.000E+01	-2.919E-17	 7.515E-16	 3.020E+04	 5.973E-14	-7.917E-13	 2.363E+04	 7.673E-11	 1.256E-10	 1.649E+00	 4.725E-03
         1.4600	 0.000E+00	 4.500E+00	 1.114E+04	 0.000E+00	 0.000E+00	 0.000E+00	 1.000E+01	-5.562E-16	 1.025E-15	 3.020E+04	-9.183E-14	-3.701E-13	 2.363E+04	 3.688E-11	 1.216E-10	 1.649E+00	 4.725E-03
         1.5000	 0.000E+00	 4.500E+00	 1.114E+04	 0.000E+00	 0.000E+00	 0.000E+00	 1.000E+01	-2.974E-16	 9.978E-16	 3.020E+04	 4.287E-13	-3.732E-13	 2.363E+04	-6.037E-11	 5.255E-11	 1.649E+00	 4.725E-03
         1.5200	 0.000E+00	 4.500E+00	 1.114E+04	 0.000E+00	 0.000E+00	 0.000E+00	 1.000E+01	-1.198E-15	 1.156E-15	 3.020E+04	 8.779E-13	 1.330E-13	 2.363E+04	-5.795E-11	-6.531E-11	 1.649E+00	 4.725E-03
         1.5400	 0.000E+00	 4.500E+00	 1.114E+04	 0.000E+00	 0.000E+00	 0.000E+00	 1.000E+01	-1.263E-15	 1.330E-15	 3.020E+04	 2.059E-13	-4.927E-13	 2.363E+04	-1.033E-10	 2.112E-10	 1.649E+00	 4.725E-03
         1.5600	 0.000E+00	 4.500E+00	 1.114E+04	 0.000E+00	 0.000E+00	 0.000E+00	 1.000E+01	 1.294E-16	 1.207E-15	 3.020E+04	 1.606E-13	 6.564E-15	 2.363E+04	-1.344E-10	-1.136E-10	 1.649E+00	 4.725E-03
         1.5800	 0.000E+00	 4.500E+00	 1.114E+04	 0.000E+00	 0.000E+00	 0.000E+00	 1.000E+01	 4.453E-16	 7.286E-16	 3.020E+04	 1.010E-14	-3.214E-13	 2.363E+04	 1.115E-10	 5.498E-11	 1.649E+00	 4.725E-03
         1.6000	 0.000E+00	 4.500E+00	 1.114E+04	 0.000E+00	 0.000E+00	 0.000E+00	 1.000E+01	 8.915E-16	 1.750E-15	 3.020E+04	-3.795E-13	-1.089E-13	 2.363E+04	 1.586E-10	-1.921E-10	 1.649E+00	 4.725E-03
         1.6200	 0.000E+00	 4.500E+00	 1.114E+04	 0.000E+00	 0.000E+00	 0.000E+00	 1.000E+01	-6.349E-17	 1.132E-15	 3.020E+04	 1.241E-13	-2.798E-13	 2.363E+04	 4.533E-11	 7.775E-11	 1.649E+00	 4.725E-03
         1.6400	 0.000E+00	 4.500E+00	 1.114E+04	 0.000E+00	 0.000E+00	 0.000E+00	 1.000E+01	-1.000E-15	 7.973E-16	 3.020E+04	-3.982E-14	-1.207E-13	 2.363E+04	-2.568E-11	-1.552E-11	 1.649E+00	 4.725E-03
         1.6600	 0.000E+00	 4.500E+00	 1.114E+04	 0.000E+00	 0.000E+00	 0.000E+00	 1.000E+01	-8.798E-16	 1.089E-15	 3.020E+04	-8.190E-14	-2.407E-13	 2.363E+04	-3.579E-11	 3.624E-11	 1.649E+00	 4.725E-03
         1.6600	 0.000E+00	 4.500E+00	 1.114E+04	 0.000E+00	 0.000E+00	 0.000E+00	 1.000E+01	-7.004E-16	-6.787E-16	 3.020E+04	-1.460E-13	-3.394E-13	 2.363E+04	 5.699E-11	 2.483E-11	 1.649E+00	 4.725E-03
         1.6800	 0.000E+00	 4.500E+00	 1.114E+04	 0.000E+00	 0.000E+00	 0.000E+00	 1.000E+01	-9.634E-16	 1.367E-15	 3.020E+04	 3.410E-13	-2.868E-14	 2.363E+04	 6.311E-11	-1.508E-10	 1.649E+00	 4.725E-03
         1.7000	 0.000E+00	 4.500E+00	 1.114E+04	 0.000E+00	 0.000E+00	 0.000E+00	 1.000E+01	-1.459E-16	 7.690E-16	 3.020E+04	 4.266E-13	-4.572E-13	 2.363E+04	-5.530E-11	 1.872E-10	 1.649E+00	 4.725E-03
         1.7200	 0.000E+00	 4.500E+00	 1.114E+04	 0.000E+00	 0.000E+00	 0.000E+00	 1.000E+01	-3.352E-16	 1.346E-15	 3.020E+04	-2.414E-13	-9.147E-13	 2.363E+04	 1.234E-10	-5.429E-12	 1.649E+00	 4.725E-03
         1.7600	 0.000E+00	 4.500E+00	 1.114E+04	 0.000E+00	 0.000E+00	 0.000E+00	 1.000E+01	-2.245E-16	 8.752E-16	 3.020E+04	 3.971E-13	-1.017E-13	 2.363E+04	-9.240E-11	 1.028E-10	 1.649E+00	 4.725E-03
         1.7800	 0.000E+00	 4.500E+00	 1.114E+04	 0.000E+00	 0.000E+00	 0.000E+00	 1.000E+01	 7.541E-16	 1.199E-15	 3.020E+04	-3.620E-14	 3.849E-13	 2.363E+04	-1.870E-12	 1.341E-10	 1.649E+00	 4.725E-03
         1.8000	 0.000E+00	 4.500E+00	 1.114E+04	 0.000E+00	 0.000E+00	 0.000E+00	 1.000E+01	 5.624E-16	 9.470E-16	 3.020E+04	-5.159E-13	-4.463E-13	 2.363E+04	 1.546E-11	 7.110E-11	 1.649E+00	 4.725E-03
         1.8200	 0.000E+00	 4.500E+00	 1.114E+04	 0.000E+00	 0.000E+00	 0.000E+00	 1.000E+01	-2.625E-16	 1.171E-15	 3.020E+04	-2.705E-13	-1.087E-12	 2.363E+04	-9.482E-11	-2.321E-11	 1.649E+00	 4.725E-03
         1.8400	 0.000E+00	 4.500E+00	 1.114E+04	 0.000E+00	 0.000E+00	 0.000E+00	 1.000E+01	 2.903E-16	 1.012E-15	 3.020E+04	-5.464E-13	-1.121E-12	 2.363E+04	 9.696E-11	 1.565E-10	 1.649E+00	 4.725E-03
         1.8600	 0.000E+00	 4.500E+00	 1.114E+04	 0.000E+00	 0.000E+00	 0.000E+00	 1.000E+01	-4.878E-16	-1.736E-16	 3.020E+04	-2.282E-13	-2.598E-13	 2.363E+04	 1.362E-10	 1.729E-11	 1.649E+00	 4.725E-03
         1.8800	 0.000E+00	 4.500E+00	 1.114E+04	 0.000E+00	 0.000E+00	 0.000E+00	 1.000E+01	-3.919E-16	 3.778E-16	 3.020E+04	-8.872E-14	-7.108E-14	 2.363E+04	-1.000E-10	 3.175E-11	 1.649E+00	 4.725E-03
         1.9000	 0.000E+00	 4.500E+00	 1.114E+04	 0.000E+00	 0.000E+00	 0.000E+00	 1.000E+01	-8.588E-16	 6.983E-16	 3.020E+04	 1.948E-13	-6.384E-14	 2.363E+04	 1.389E-11	 2.942E-11	 1.649E+00	 4.725E-03
         1.9000	 0.000E+00	 4.500E+00	 1.114E+04	 0.000E+00	 0.000E+00	 0.000E+00	 1.000E+01	 1.136E-16	 1.165E-15	 3.020E+04	-1.314E-13	-3.883E-13	 2.363E+04	 6.387E-11	 1.248E-11	 1.649E+00	 4.725E-03
         1.9200	 0.000E+00	 4.500E+00	 1.114E+04	 0.000E+00	 0.000E+00	 0.000E+00	 1.000E+01	-1.677E-17	 7.732E-16	 3.020E+04	-1.420E-14	 7.730E-13	 2.363E+04	 2.508E-10	-1.388E-10	 1.649E+00	 4.725E-03
         1.9400	 0.000E+00	 4.500E+00	 1.114E+04	 0.000E+00	 0.000E+00	 0.000E+00	 1.000E+01	-3.660E-16	 5.524E-16	 3.020E+04	 1.252E-13	 2.202E-14	 2.363E+04	-8.487E-11	-8.100E-11	 1.649E+00	 4.725E-03
         1.9600	 0.000E+00	 4.500E+00	 1.114E+04	 0.000E+00	 0.000E+00	 0.000E+00	 1.000E+01	 2.690E-16	 2.816E-16	 3.020E+04	 4.347E-13	 1.753E-13	 2.363E+04	-1.026E-10	 1.413E-10	 1.649E+00	 4.725E-03
         2.0000	 0.000E+00	 4.500E+00	 1.114E+04	 0.000E+00	 0.000E+00	 0.000E+00	 1.000E+01	-2.692E-16	 1.519E-15	 3.020E+04	 5.023E-13	 7.861E-14	 2.363E+04	-7.078E-11	 1.997E-10	 1.649E+00	 4.725E-03
         2.0200	 0.000E+00	 4.500E+00	 1.114E+04	 0.000E+00	 0.000E+00	 0.000E+00	 1.000E+01	-9.441E-16	 3.179E-16	 3.020E+04	-1.539E-13	-1.768E-13	 2.363E+04	 4.660E-11	 8.578E-11	 1.649E+00	 4.725E-03
         2.0400	 0.000E+00	 4.500E+00	 1.114E+04	 0.000E+00	 0.000E+00	 0.000E+00	 1.000E+01	 1.445E-16	 8.374E-16	 3.020E+04	-2.568E-13	 3.753E-13	 2.363E+04	 1.068E-10	-1.561E-10	 1.649E+00	 4.725E-03
         2.0600	 0.000E+00	 4.500E+00	 1.114E+04	 0.000E+00	 0.000E+00	 0.000E+00	 1.000E+01	 2.400E-16	 5.802E-16	 3.020E+04	-6.170E-14	-5.204E-13	 2.363E+04	 1.450E-10	 9.724E-11	 1.649E+00	 4.725E-03
         2.0800	 0.000E+00	 4.500E+00	 1.114E+04	 0.000E+00	 0.000E+00	 0.000E+00	 1.000E+01	-7.649E-16	 1.164E-15	 3.020E+04	 1.845E-13	-6.950E-13	 2.363E+04	-2.175E-10	 6.606E-11	 1.649E+00	 4.725E-03
         2.1000	 0.000E+00	 4.500E+00	 1.114E+04	 0.000E+00	 0.000E+00	 0.000E+00	 1.000E+01	 1.617E-16	 1.036E-15	 3.020E+04	 4.165E-13	 4.032E-13	 2.363E+04	 8.832E-11	-2.969E-11	 1.649E+00	 4.725E-03
         2.1200	 0.000E+00	 4.500E+00	 1.114E+04	 0.000E+00	 0.000E+00	 0.000E+00	 1.000E+01	-5.475E-16	 1.261E-15	 3.020E+04	-2.530E-13	-2.505E-14	 2.363E+04	 1.346E-12	 5.245E-11	 1.649E+00	 4.725E-03
         2.1400	 0.000E+00	 4.500E+00	 1.114E+04	 0.000E+00	 0.000E+00	 0.000E+00	 1.000E+01	 1.541E-16	 8.114E-16	 3.020E+04	-3.704E-14	-1.565E-13	 2.363E+04	-7.246E-11	 6.582E-12	 1.649E+00	 4.725E-03
         2.1600	 0.000E+00	 4.500E+00	 1.114E+04	 0.000E+00	 0.000E+00	 0.000E+00	 1.000E+01	-1.101E-15	 6.776E-16	 3.020E+04	 1.946E-13	 1.176E-13	 2.363E+04	 1.251E-10	-9.445E-11	 1.649E+00	 4.725E-03
         2.1800	 0.000E+00	 4.500E+00	 1.114E+04	 0.000E+00	 0.000E+00	 0.000E+00	 1.000E+01	-6.544E-16	 4.223E-16	 3.020E+04	 8.255E-13	-5.024E-13	 2.363E+04	-9.158E-12	 1.298E-10	 1.649E+00	 4.725E-03
         2.2000	 0.000E+00	 4.500E+00	 1.114E+04	 0.000E+00	 0.000E+00	 0.000E+00	 1.000E+01	-9.583E-16	-1.522E-16	 3.020E+04	-2.977E-13	 2.874E-13	 2.363E+04	 1.126E-11	-7.755E-11	 1.649E+00	 4.725E-03
         2.2200	 0.000E+00	 4.500E+00	 1.114E+04	 0.000E+00	 0.000E+00	 0.000E+00	 1.000E+01	 3.842E-16	 1.018E-15	 3.020E+04	 1.830E-13	-9.238E-14	 2.363E+04	-3.967E-11	 1.099E-11	 1.649E+00	 4.725E-03
         2.2400	 0.000E+00	 4.500E+00	 1.114E+04	 0.000E+00	 0.000E+00	 0.000E+00	 1.000E+01	 5.484E-17	 5.480E-16	 3.020E+04	 1.714E-13	 1.599E-13	 2.363E+04	 7.364E-11	 1.073E-10	 1.649E+00	 4.725E-03
         2.2600	 0.000E+00	 4.500E+00	 1.114E+04	 0.000E+00	 0.000E+00	 0.000E+00	 1.000E+01	-3.126E-16	 5.041E-16	 3.020E+04	 5.626E-14	 6.123E-13	 2.363E+04	 6.388E-12	-1.951E-10	 1.649E+00	 4.725E-03
         2.2800	 0.000E+00	 4.500E+00	 1.114E+04	 0.000E+00	 0.000E+00	 0.000E+00	 1.000E+01	-1.829E-16	 4.943E-16	 3.020E+04	 1.005E-13	 5.320E-14	 2.363E+04	 1.558E-10	 1.665E-11	 1.649E+00	 4.725E-03
         2.3000	 0.000E+00	 4.500E+00	 1.114E+04	 0.000E+00	 0.000E+00	 0.000E+00	 1.000E+01	-8.525E-16	 8.138E-16	 3.020E+04	-6.616E-13	 4.167E-14	 2.363E+04	 4.501E-11	 3.968E-11	 1.649E+00	 4.725E-03
         2.3000	 0.000E+00	 4.500E+00	 1.114E+04	 0.000E+00	 0.000E+00	 0.000E+00	 1.000E+01	-4.212E-16	 1.383E-16	 3.020E+04	-1.505E-13	-4.583E-13	 2.363E+04	 6.537E-11	-6.479E-11	 1.649E+00	 4.725E-03
         2.3200	 0.000E+00	 4.500E+00	 1.114E+04	 0.000E+00	 0.000E+00	 0.000E+00	 1.000E+01	 1.265E-16	 3.732E-16	 3.020E+04	 2.517E-14	-5.097E-14	 2.363E+04	 1.102E-10	-9.166E-11	 1.649E+00	 4.725E-03
         2.3400	 0.000E+00	 4.500E+00	 1.114E+04	 0.000E+00	 0.000E+00	 0.000E+00	 1.000E+01	-2.028E-16	 1.062E-15	 3.020E+04	-2.295E-13	-4.754E-14	 2.363E+04	 1.990E-11	 2.575E-11	 1.649E+00	 4.725E-03
         2.3600	 0.000E+00	 4.500E+00	 1.114E+04	 0.000E+00	 0.000E+00	 0.000E+00	 1.000E+01	-1.937E-15	 4.357E-16	 3.020E+04	-1.573E-13	-1.997E-13	 2.363E+04	-1.177E-10	-2.323E-11	 1.649E+00	 4.725E-03
         2.3800	 0.000E+00	 4.500E+00	 1.114E+04	 0.000E+00	 0.000E+00	 0.000E+00	 1.000E+01	 5.537E-16	 7.141E-16	 3.020E+04	-6.352E-13	 2.113E-14	 2.363E+04	 1.565E-10	 7.816E-12	 1.649E+00	 4.725E-03
         2.4000	 0.000E+00	 4.500E+00	 1.114E+04	 0.000E+00	 0.000E+00	 0.000E+00	 1.000E+01	 7.317E-16	 1.434E-15	 3.020E+04	 3.004E-13	-1.146E-13	 2.363E+04	-5.907E-11	-1.051E-11	 1.649E+00	 4.725E-03
         2.4200	 0.000E+00	 4.500E+00	 1.114E+04	 0.000E+00	 0.000E+00	 0.000E+00	 1.000E+01	-3.152E-16	-6.155E-17	 3.020E+04	-2.766E-13	 6.534E-14	 2.363E+04	 1.358E-10	-2.011E-11	 1.649E+00	 4.725E-03
         2.4400	 0.000E+00	 4.500E+00	 1.114E+04	 0.000E+00	 0.000E+00	 0.000E+00	 1.000E+01	 4.653E-16	 1.220E-15	 3.020E+04	-6.012E-14	-1.491E-13	 2.363E+04	-4.618E-11	-1.145E-10	 1.649E+00	 4.725E-03
         2.4600	 0.000E+00	 4.500E+00	 1.114E+04	 0.000E+00	 0.000E+00	 0.000E+00	 1.000E+01	 3.260E-16	 8.513E-16	 3.020E+04	-2.318E-13	-3.450E-14	 2.363E+04	 8.432E-11	 1.767E-10	 1.649E+00	 4.725E-03
         2.5000	 0.000E+00	 4.500E+00	 1.114E+04	 0.000E+00	 0.000E+00	 0.000E+00	 1.000E+01	-1.954E-16	 4.846E-16	 3.020E+04	-3.801E-13	 3.061E-14	 2.363E+04	 3.222E-11	 7.575E-11	 1.649E+00	 4.725E-03
         2.5200	 0.000E+00	 4.500E+00	 1.114E+04	 0.000E+00	 0.000E+00	 0.000E+00	 1.000E+01	-8.515E-16	 1.312E-15	 3.020E+04	 5.459E-13	-4.575E-13	 2.363E+04	-1.663E-10	 1.849E-10	 1.649E+00	 4.725E-03
         2.5400	 0.000E+00	 4.500E+00	 1.114E+04	 0.000E+00	 0.000E+00	 0.000E+00	 1.000E+01	 1.258E-15	 1.002E-15	 3.020E+04	-2.935E-13	 1.314E-13	 2.363E+04	 1.424E-10	 1.166E-10	 1.649E+00	 4.725E-03
         2.5600	 0.000E+00	 4.500E+00	 1.114E+04	 0.000E+00	 0.000E+00	 0.000E+00	 1.000E+01	-5.555E-16	 7.970E-16	 3.020E+04	-2.330E-13	-2.573E-14	 2.363E+04	-2.214E-10	 1.105E-11	 1.649E+00	 4.725E-03
         2.5800	 0.000E+00	 4.500E+00	 1.114E+04	 0.000E+00	 0.000E+00	 0.000E+00	 1.000E+01	-5.427E-16	 5.820E-16	 3.020E+04	 2.717E-13	-8.343E-14	 2.363E+04	 1.167E-10	-6.627E-11	 1.649E+00	 4.725E-03
         2.6000	 0.000E+00	 4.500E+00	 1.114E+04	 0.000E+00	 0.000E+00	 0.000E+00	 1.000E+01	 7.930E-18	-5.507E-16	 3.020E+04	-3.232E-14	-2.521E-13	 2.363E+04	 1.456E-10	 1.126E-10	 1.649E+00	 4.725E-03
         2.6200	 0.000E+00	 4.500E+00	 1.114E+04	 0.000E+00	 0.000E+00	 0.000E+00	 1.000E+01	-6.849E-16	 3.931E-16	 3.020E+04	-1.642E-13	 4.845E-13	 2.363E+04	-2.244E-11	-1.152E-10	 1.649E+00	 4.725E-03
         2.6400	 0.000E+00	 4.500E+00	 1.114E+04	 0.000E+00	 0.000E+00	 0.000E+00	 1.000E+01	-6.006E-16	 1.159E-15	 3.020E+04	-2.499E-13	 3.966E-13	 2.363E+04	 2.352E-11	 1.149E-10	 1.649E+00	 4.725E-03
         2.6600	 0.000E+00	 4.500E+00	 1.114E+04	 0.000E+00	 0.000E+00	 0.000E+00	 1.000E+01	-4.237E-16	 1.218E-15	 3.020E+04	 8.613E-14	-2.709E-13	 2.363E+04	-1.128E-10	 1.626E-10	 1.649E+00	 4.725E-03
         2.6800	 0.000E+00	 4.500E+00	 1.114E+04	 0.000E+00	 0.000E+00	 0.000E+00	 1.000E+01	-3.072E-17	 9.987E-17	 3.020E+04	 1.003E-13	 4.472E-13	 2.363E+04	 4.493E-11	-4.708E-11	 1.649E+00	 4.725E-03
         2.7000	 0.000E+00	 4.500E+00	 1.114E+04	 0.000E+00	 0.000E+00	 0.000E+00	 1.000E+01	 7.696E-16	 9.556E-16	 3.020E+04	-2.341E-13	-1.032E-14	 2.363E+04	 1.252E-10	-1.146E-10	 1.649E+00	 4.725E-03
         2.7200	 0.000E+00	 4.500E+00	 1.114E+04	 0.000E+00	 0.000E+00	 0.000E+00	 1.000E+01	 3.651E-18	 8.708E-16	 3.020E+04	 2.661E-13	-5.150E-13	 2.363E+04	-1.800E-10	 9.971E-11	 1.649E+00	 4.725E-03
         2.7400	 0.000E+00	 4.500E+00	 1.114E+04	 0.000E+00	 0.000E+00	 0.000E+00	 1.000E+01	-2.221E-16	-2.422E-16	 3.020E+04	 6.995E-14	-3.961E-14	 2.363E+04	-5.610E-11	-1.554E-11	 1.649E+00	 4.725E-03
         2.7600	 0.000E+00	 4.500E+00	 1.114E+04	 0.000E+00	 0.000E+00	 0.000E+00	 1.000E+01	-1.055E-15	 4.396E-16	 3.020E+04	 1.098E-13	 2.931E-14	 2.363E+04	-9.747E-11	-8.625E-11	 1.649E+00	 4.725E-03
         2.7800	 0.000E+00	 4.500E+00	 1.114E+04	 0.000E+00	 0.000E+00	 0.000E+00	 1.000E+01	-1.471E-15	 1.258E-16	 3.020E+04	 1.920E-13	 1.667E-13	 2.363E+04	 4.838E-11	 1.627E-10	 1.649E+00	 4.725E-03
         2.8000	 0.000E+00	 4.500E+00	 1.114E+04	 0.000E+00	 0.000E+00	 0.000E+00	 1.000E+01	-8.299E-17	 4.818E-16	 3.020E+04	-8.551E-13	-9.388E-14	 2.363E+04	 2.257E-10	-6.422E-11	 1.649E+00	 4.725E-03
         2.8000	 0.000E+00	 4.500E+00	 1.114E+04	 0.000E+00	 0.000E+00	 0.000E+00	 1.000E+01	-1.622E-15	 6.539E-16	 3.020E+04	-2.504E-13	-1.761E-13	 2.363E+04	 3.309E-10	-7.120E-11	 1.649E+00	 4.725E-03
         2.8200	 0.000E+00	 4.500E+00	 1.114E+04	 0.000E+00	 0.000E+00	 0.000E+00	 1.000E+01	-2.420E-16	 9.094E-16	 3.020E+04	-3.543E-14	-3.578E-13	 2.363E+04	-8.120E-11	 1.606E-10	 1.649E+00	 4.725E-03
         2.8400	 0.000E+00	 4.500E+00	 1.114E+04	 0.000E+00	 0.000E+00	 0.000E+00	 1.000E+01	-3.330E-16	-1.079E-16	 3.020E+04	-2.945E-13	 2.851E-13	 2.363E+04	 1.119E-10	-3.529E-11	 1.649E+00	 4.725E-03
         2.8600	 0.000E+00	 4.500E+00	 1.114E+04	 0.000E+00	 0.000E+00	 0.000E+00	 1.000E+01	-5.047E-16	 8.914E-16	 3.020E+04	-2.497E-13	 6.449E-13	 2.363E+04	 1.126E-10	-1.847E-10	 1.649E+00	 4.725E-03