
Predictions were generated on 02-Oct-2019 at 14:28:18 using AeroDyn_Interface_Subs
 AeroDyn


     Time           	RtSpeed   	RtAeroFxh 	RtAeroFyh 	RtAeroFzh 	RtAeroMxh 	RtAeroMyh 	RtAeroMzh 	RtTSR     	RtAeroCp  	RtAeroPwr 
      (s)           	(rpm)     	(N)       	(N)       	(N)       	(N-m)     	(N-m)     	(N-m)     	(-)       	(-)       	(W)       
         0.0000	 9.584E-01	 4.012E+05	-7.439E+03	-3.843E+03	 1.704E+06	 1.422E+06	 2.849E+05	 2.399E-01	 1.229E-03	 1.710E+05
         0.0100	 9.584E-01	 4.012E+05	-7.438E+03	-3.842E+03	 1.704E+06	 1.422E+06	 2.849E+05	 2.399E-01	 1.229E-03	 1.710E+05
         0.0200	 9.626E-01	 4.013E+05	-7.468E+03	-3.857E+03	 1.704E+06	 1.426E+06	 2.859E+05	 2.410E-01	 1.235E-03	 1.718E+05
         0.0300	 9.668E-01	 4.014E+05	-7.483E+03	-3.869E+03	 1.704E+06	 1.429E+06	 2.863E+05	 2.420E-01	 1.240E-03	 1.725E+05
         0.0400	 9.710E-01	 4.013E+05	-7.475E+03	-3.876E+03	 1.704E+06	 1.430E+06	 2.866E+05	 2.431E-01	 1.246E-03	 1.733E+05
         0.0500	 9.752E-01	 4.013E+05	-7.467E+03	-3.883E+03	 1.704E+06	 1.432E+06	 2.870E+05	 2.441E-01	 1.251E-03	 1.740E+05
         0.0600	 9.793E-01	 4.012E+05	-7.465E+03	-3.892E+03	 1.704E+06	 1.434E+06	 2.875E+05	 2.452E-01	 1.256E-03	 1.747E+05
         0.0700	 9.835E-01	 4.012E+05	-7.468E+03	-3.901E+03	 1.704E+06	 1.436E+06	 2.879E+05	 2.462E-01	 1.261E-03	 1.755E+05
         0.0800	 9.877E-01	 4.013E+05	-7.475E+03	-3.911E+03	 1.704E+06	 1.438E+06	 2.884E+05	 2.473E-01	 1.267E-03	 1.762E+05
         0.0900	 9.919E-01	 4.013E+05	-7.482E+03	-3.921E+03	 1.704E+06	 1.441E+06	 2.889E+05	 2.483E-01	 1.272E-03	 1.770E+05
         0.1000	 9.961E-01	 4.013E+05	-7.491E+03	-3.931E+03	 1.704E+06	 1.444E+06	 2.894E+05	 2.494E-01	 1.278E-03	 1.777E+05
         0.1100	 1.000E+00	 4.014E+05	-7.500E+03	-3.942E+03	 1.704E+06	 1.446E+06	 2.898E+05	 2.504E-01	 1.283E-03	 1.785E+05
         0.1200	 1.004E+00	 4.014E+05	-7.509E+03	-3.952E+03	 1.704E+06	 1.449E+06	 2.903E+05	 2.515E-01	 1.289E-03	 1.793E+05
         0.1300	 1.009E+00	 4.014E+05	-7.518E+03	-3.962E+03	 1.704E+06	 1.452E+06	 2.907E+05	 2.525E-01	 1.294E-03	 1.800E+05
         0.1400	 1.013E+00	 4.015E+05	-7.527E+03	-3.972E+03	 1.704E+06	 1.454E+06	 2.911E+05	 2.536E-01	 1.300E-03	 1.808E+05
         0.1500	 1.017E+00	 4.015E+05	-7.535E+03	-3.982E+03	 1.705E+06	 1.457E+06	 2.916E+05	 2.546E-01	 1.305E-03	 1.815E+05
         0.1600	 1.021E+00	 4.015E+05	-7.544E+03	-3.993E+03	 1.705E+06	 1.460E+06	 2.920E+05	 2.557E-01	 1.310E-03	 1.823E+05
         0.1700	 1.025E+00	 4.016E+05	-7.552E+03	-4.003E+03	 1.705E+06	 1.462E+06	 2.924E+05	 2.567E-01	 1.316E-03	 1.831E+05
         0.1800	 1.030E+00	 4.016E+05	-7.561E+03	-4.012E+03	 1.705E+06	 1.465E+06	 2.928E+05	 2.578E-01	 1.321E-03	 1.838E+05
         0.1900	 1.034E+00	 4.016E+05	-7.569E+03	-4.022E+03	 1.705E+06	 1.468E+06	 2.932E+05	 2.588E-01	 1.327E-03	 1.846E+05
         0.2000	 1.038E+00	 4.017E+05	-7.577E+03	-4.032E+03	 1.705E+06	 1.470E+06	 2.936E+05	 2.598E-01	 1.332E-03	 1.853E+05
         0.2100	 1.042E+00	 4.017E+05	-7.585E+03	-4.042E+03	 1.705E+06	 1.473E+06	 2.940E+05	 2.609E-01	 1.338E-03	 1.861E+05
         0.2200	 1.046E+00	 4.018E+05	-7.593E+03	-4.052E+03	 1.705E+06	 1.475E+06	 2.944E+05	 2.619E-01	 1.343E-03	 1.868E+05
         0.2300	 1.051E+00	 4.018E+05	-7.601E+03	-4.061E+03	 1.705E+06	 1.478E+06	 2.948E+05	 2.630E-01	 1.349E-03	 1.876E+05
         0.2400	 1.055E+00	 4.018E+05	-7.609E+03	-4.071E+03	 1.706E+06	 1.481E+06	 2.951E+05	 2.640E-01	 1.354E-03	 1.884E+05
         0.2500	 1.059E+00	 4.019E+05	-7.616E+03	-4.080E+03	 1.706E+06	 1.483E+06	 2.955E+05	 2.651E-01	 1.360E-03	 1.891E+05
         0.2600	 1.063E+00	 4.019E+05	-7.624E+03	-4.090E+03	 1.706E+06	 1.486E+06	 2.959E+05	 2.661E-01	 1.365E-03	 1.899E+05
         0.2700	 1.067E+00	 4.020E+05	-7.632E+03	-4.099E+03	 1.706E+06	 1.488E+06	 2.962E+05	 2.672E-01	 1.371E-03	 1.907E+05
         0.2800	 1.071E+00	 4.020E+05	-7.639E+03	-4.108E+03	 1.706E+06	 1.491E+06	 2.966E+05	 2.682E-01	 1.376E-03	 1.914E+05
         0.2900	 1.076E+00	 4.020E+05	-7.647E+03	-4.117E+03	 1.706E+06	 1.494E+06	 2.969E+05	 2.693E-01	 1.382E-03	 1.922E+05
         0.3000	 1.080E+00	 4.021E+05	-7.654E+03	-4.127E+03	 1.706E+06	 1.496E+06	 2.972E+05	 2.703E-01	 1.387E-03	 1.929E+05
         0.3100	 1.084E+00	 4.021E+05	-7.661E+03	-4.136E+03	 1.706E+06	 1.499E+06	 2.976E+05	 2.714E-01	 1.393E-03	 1.937E+05
         0.3200	 1.088E+00	 4.022E+05	-7.669E+03	-4.145E+03	 1.707E+06	 1.501E+06	 2.979E+05	 2.724E-01	 1.398E-03	 1.945E+05
         0.3300	 1.092E+00	 4.022E+05	-7.676E+03	-4.154E+03	 1.707E+06	 1.504E+06	 2.982E+05	 2.735E-01	 1.403E-03	 1.952E+05
         0.3400	 1.097E+00	 4.022E+05	-7.683E+03	-4.163E+03	 1.707E+06	 1.506E+06	 2.985E+05	 2.745E-01	 1.409E-03	 1.960E+05
         0.3500	 1.101E+00	 4.023E+05	-7.690E+03	-4.171E+03	 1.707E+06	 1.509E+06	 2.988E+05	 2.756E-01	 1.414E-03	 1.968E+05
         0.3600	 1.105E+00	 4.023E+05	-7.697E+03	-4.180E+03	 1.707E+06	 1.511E+06	 2.991E+05	 2.766E-01	 1.420E-03	 1.975E+05
         0.3700	 1.109E+00	 4.024E+05	-7.705E+03	-4.189E+03	 1.707E+06	 1.514E+06	 2.994E+05	 2.777E-01	 1.425E-03	 1.983E+05
         0.3800	 1.113E+00	 4.024E+05	-7.712E+03	-4.198E+03	 1.707E+06	 1.516E+06	 2.997E+05	 2.787E-01	 1.431E-03	 1.991E+05
         0.3900	 1.118E+00	 4.025E+05	-7.719E+03	-4.206E+03	 1.707E+06	 1.519E+06	 3.000E+05	 2.798E-01	 1.436E-03	 1.998E+05
         0.4000	 1.122E+00	 4.025E+05	-7.725E+03	-4.215E+03	 1.708E+06	 1.522E+06	 3.002E+05	 2.808E-01	 1.442E-03	 2.006E+05
         0.4100	 1.126E+00	 4.026E+05	-7.732E+03	-4.223E+03	 1.708E+06	 1.524E+06	 3.005E+05	 2.819E-01	 1.448E-03	 2.014E+05
         0.4200	 1.130E+00	 4.026E+05	-7.739E+03	-4.231E+03	 1.708E+06	 1.527E+06	 3.007E+05	 2.829E-01	 1.453E-03	 2.021E+05
         0.4300	 1.134E+00	 4.026E+05	-7.746E+03	-4.240E+03	 1.708E+06	 1.529E+06	 3.010E+05	 2.840E-01	 1.459E-03	 2.029E+05
         0.4400	 1.139E+00	 4.027E+05	-7.753E+03	-4.248E+03	 1.708E+06	 1.532E+06	 3.012E+05	 2.850E-01	 1.464E-03	 2.037E+05
         0.4500	 1.143E+00	 4.027E+05	-7.760E+03	-4.256E+03	 1.708E+06	 1.534E+06	 3.015E+05	 2.861E-01	 1.470E-03	 2.044E+05
         0.4600	 1.147E+00	 4.028E+05	-7.766E+03	-4.264E+03	 1.708E+06	 1.537E+06	 3.017E+05	 2.871E-01	 1.475E-03	 2.052E+05
         0.4700	 1.151E+00	 4.028E+05	-7.773E+03	-4.272E+03	 1.709E+06	 1.539E+06	 3.019E+05	 2.882E-01	 1.481E-03	 2.060E+05
         0.4800	 1.155E+00	 4.029E+05	-7.780E+03	-4.280E+03	 1.709E+06	 1.542E+06	 3.021E+05	 2.892E-01	 1.486E-03	 2.067E+05
         0.4900	 1.160E+00	 4.029E+05	-7.786E+03	-4.288E+03	 1.709E+06	 1.544E+06	 3.023E+05	 2.903E-01	 1.492E-03	 2.075E+05
         0.5000	 1.164E+00	 4.030E+05	-7.793E+03	-4.296E+03	 1.709E+06	 1.546E+06	 3.025E+05	 2.913E-01	 1.497E-03	 2.083E+05
         0.5100	 1.168E+00	 4.030E+05	-7.800E+03	-4.304E+03	 1.709E+06	 1.549E+06	 3.027E+05	 2.924E-01	 1.503E-03	 2.090E+05
         0.5200	 1.172E+00	 4.031E+05	-7.806E+03	-4.311E+03	 1.709E+06	 1.551E+06	 3.029E+05	 2.934E-01	 1.508E-03	 2.098E+05
         0.5300	 1.176E+00	 4.031E+05	-7.813E+03	-4.319E+03	 1.710E+06	 1.554E+06	 3.031E+05	 2.945E-01	 1.514E-03	 2.106E+05
         0.5400	 1.180E+00	 4.032E+05	-7.819E+03	-4.327E+03	 1.710E+06	 1.556E+06	 3.033E+05	 2.955E-01	 1.519E-03	 2.114E+05
         0.5500	 1.185E+00	 4.032E+05	-7.826E+03	-4.334E+03	 1.710E+06	 1.559E+06	 3.034E+05	 2.966E-01	 1.525E-03	 2.121E+05
         0.5600	 1.189E+00	 4.033E+05	-7.832E+03	-4.341E+03	 1.710E+06	 1.561E+06	 3.036E+05	 2.976E-01	 1.531E-03	 2.129E+05
         0.5700	 1.193E+00	 4.034E+05	-7.839E+03	-4.349E+03	 1.710E+06	 1.564E+06	 3.037E+05	 2.987E-01	 1.536E-03	 2.137E+05
         0.5800	 1.197E+00	 4.034E+05	-7.845E+03	-4.356E+03	 1.710E+06	 1.566E+06	 3.038E+05	 2.997E-01	 1.542E-03	 2.144E+05
         0.5900	 1.201E+00	 4.035E+05	-7.851E+03	-4.363E+03	 1.711E+06	 1.568E+06	 3.040E+05	 3.008E-01	 1.547E-03	 2.152E+05
         0.6000	 1.206E+00	 4.035E+05	-7.858E+03	-4.370E+03	 1.711E+06	 1.571E+06	 3.041E+05	 3.018E-01	 1.553E-03	 2.160E+05
         0.6100	 1.210E+00	 4.036E+05	-7.864E+03	-4.377E+03	 1.711E+06	 1.573E+06	 3.042E+05	 3.029E-01	 1.558E-03	 2.168E+05
         0.6200	 1.214E+00	 4.036E+05	-7.870E+03	-4.384E+03	 1.711E+06	 1.576E+06	 3.043E+05	 3.039E-01	 1.564E-03	 2.175E+05
         0.6300	 1.218E+00	 4.037E+05	-7.876E+03	-4.391E+03	 1.711E+06	 1.578E+06	 3.044E+05	 3.050E-01	 1.569E-03	 2.183E+05
         0.6400	 1.223E+00	 4.037E+05	-7.883E+03	-4.398E+03	 1.711E+06	 1.580E+06	 3.045E+05	 3.061E-01	 1.575E-03	 2.191E+05
         0.6500	 1.227E+00	 4.038E+05	-7.889E+03	-4.405E+03	 1.712E+06	 1.583E+06	 3.045E+05	 3.071E-01	 1.581E-03	 2.199E+05
         0.6600	 1.231E+00	 4.039E+05	-7.895E+03	-4.411E+03	 1.712E+06	 1.585E+06	 3.046E+05	 3.082E-01	 1.586E-03	 2.207E+05
         0.6700	 1.235E+00	 4.039E+05	-7.901E+03	-4.418E+03	 1.712E+06	 1.587E+06	 3.047E+05	 3.092E-01	 1.592E-03	 2.214E+05
         0.6800	 1.239E+00	 4.040E+05	-7.907E+03	-4.424E+03	 1.712E+06	 1.590E+06	 3.048E+05	 3.103E-01	 1.597E-03	 2.222E+05
         0.6900	 1.244E+00	 4.040E+05	-7.913E+03	-4.431E+03	 1.712E+06	 1.592E+06	 3.048E+05	 3.113E-01	 1.603E-03	 2.230E+05
         0.7000	 1.248E+00	 4.041E+05	-7.919E+03	-4.437E+03	 1.713E+06	 1.595E+06	 3.048E+05	 3.124E-01	 1.609E-03	 2.238E+05
         0.7100	 1.252E+00	 4.042E+05	-7.925E+03	-4.443E+03	 1.713E+06	 1.597E+06	 3.049E+05	 3.134E-01	 1.614E-03	 2.246E+05
         0.7200	 1.256E+00	 4.042E+05	-7.931E+03	-4.450E+03	 1.713E+06	 1.599E+06	 3.049E+05	 3.145E-01	 1.620E-03	 2.253E+05
         0.7300	 1.260E+00	 4.043E+05	-7.937E+03	-4.456E+03	 1.713E+06	 1.602E+06	 3.049E+05	 3.155E-01	 1.626E-03	 2.261E+05
         0.7400	 1.265E+00	 4.044E+05	-7.943E+03	-4.462E+03	 1.713E+06	 1.604E+06	 3.049E+05	 3.166E-01	 1.631E-03	 2.269E+05
         0.7500	 1.269E+00	 4.044E+05	-7.949E+03	-4.468E+03	 1.714E+06	 1.606E+06	 3.049E+05	 3.176E-01	 1.637E-03	 2.277E+05
         0.7600	 1.273E+00	 4.045E+05	-7.955E+03	-4.474E+03	 1.714E+06	 1.608E+06	 3.048E+05	 3.187E-01	 1.642E-03	 2.285E+05
         0.7700	 1.277E+00	 4.045E+05	-7.961E+03	-4.479E+03	 1.714E+06	 1.611E+06	 3.048E+05	 3.197E-01	 1.648E-03	 2.293E+05
         0.7800	 1.281E+00	 4.046E+05	-7.967E+03	-4.485E+03	 1.714E+06	 1.613E+06	 3.048E+05	 3.208E-01	 1.654E-03	 2.300E+05
         0.7900	 1.286E+00	 4.047E+05	-7.972E+03	-4.490E+03	 1.715E+06	 1.615E+06	 3.047E+05	 3.219E-01	 1.659E-03	 2.308E+05
         0.8000	 1.290E+00	 4.047E+05	-7.978E+03	-4.496E+03	 1.715E+06	 1.618E+06	 3.046E+05	 3.229E-01	 1.665E-03	 2.316E+05
         0.8100	 1.294E+00	 4.048E+05	-7.984E+03	-4.502E+03	 1.715E+06	 1.620E+06	 3.046E+05	 3.240E-01	 1.671E-03	 2.324E+05
         0.8200	 1.298E+00	 4.049E+05	-7.990E+03	-4.507E+03	 1.715E+06	 1.622E+06	 3.045E+05	 3.250E-01	 1.676E-03	 2.332E+05
         0.8300	 1.302E+00	 4.049E+05	-7.995E+03	-4.512E+03	 1.715E+06	 1.624E+06	 3.044E+05	 3.261E-01	 1.682E-03	 2.340E+05
         0.8400	 1.307E+00	 4.050E+05	-8.001E+03	-4.517E+03	 1.716E+06	 1.627E+06	 3.043E+05	 3.271E-01	 1.688E-03	 2.348E+05
         0.8500	 1.311E+00	 4.051E+05	-8.011E+03	-4.523E+03	 1.716E+06	 1.629E+06	 3.042E+05	 3.282E-01	 1.693E-03	 2.356E+05
         0.8600	 1.315E+00	 4.052E+05	-8.020E+03	-4.528E+03	 1.716E+06	 1.631E+06	 3.041E+05	 3.292E-01	 1.699E-03	 2.364E+05
         0.8700	 1.319E+00	 4.052E+05	-8.030E+03	-4.533E+03	 1.717E+06	 1.634E+06	 3.040E+05	 3.303E-01	 1.705E-03	 2.372E+05
         0.8800	 1.324E+00	 4.053E+05	-8.039E+03	-4.538E+03	 1.717E+06	 1.636E+06	 3.038E+05	 3.313E-01	 1.711E-03	 2.380E+05
         0.8900	 1.328E+00	 4.054E+05	-8.048E+03	-4.543E+03	 1.717E+06	 1.638E+06	 3.037E+05	 3.324E-01	 1.716E-03	 2.388E+05
         0.9000	 1.332E+00	 4.055E+05	-8.057E+03	-4.548E+03	 1.717E+06	 1.640E+06	 3.035E+05	 3.335E-01	 1.722E-03	 2.396E+05
         0.9100	 1.336E+00	 4.056E+05	-8.066E+03	-4.553E+03	 1.718E+06	 1.643E+06	 3.034E+05	 3.345E-01	 1.728E-03	 2.404E+05
         0.9200	 1.340E+00	 4.056E+05	-8.074E+03	-4.558E+03	 1.718E+06	 1.645E+06	 3.032E+05	 3.356E-01	 1.734E-03	 2.412E+05
         0.9300	 1.345E+00	 4.057E+05	-8.083E+03	-4.562E+03	 1.718E+06	 1.647E+06	 3.030E+05	 3.366E-01	 1.739E-03	 2.420E+05
         0.9400	 1.349E+00	 4.058E+05	-8.091E+03	-4.567E+03	 1.719E+06	 1.649E+06	 3.028E+05	 3.377E-01	 1.745E-03	 2.428E+05
         0.9500	 1.353E+00	 4.059E+05	-8.099E+03	-4.571E+03	 1.719E+06	 1.652E+06	 3.026E+05	 3.387E-01	 1.751E-03	 2.436E+05
         0.9600	 1.357E+00	 4.060E+05	-8.107E+03	-4.576E+03	 1.719E+06	 1.654E+06	 3.023E+05	 3.398E-01	 1.757E-03	 2.444E+05
         0.9700	 1.362E+00	 4.060E+05	-8.115E+03	-4.580E+03	 1.720E+06	 1.656E+06	 3.021E+05	 3.409E-01	 1.762E-03	 2.452E+05
         0.9800	 1.366E+00	 4.061E+05	-8.123E+03	-4.584E+03	 1.720E+06	 1.658E+06	 3.019E+05	 3.419E-01	 1.768E-03	 2.460E+05
         0.9900	 1.370E+00	 4.062E+05	-8.131E+03	-4.588E+03	 1.720E+06	 1.660E+06	 3.016E+05	 3.430E-01	 1.774E-03	 2.468E+05
         1.0000	 1.374E+00	 4.063E+05	-8.138E+03	-4.592E+03	 1.721E+06	 1.663E+06	 3.013E+05	 3.440E-01	 1.780E-03	 2.476E+05
         1.0100	 1.378E+00	 4.064E+05	-8.146E+03	-4.595E+03	 1.721E+06	 1.665E+06	 3.010E+05	 3.451E-01	 1.786E-03	 2.484E+05
         1.0200	 1.383E+00	 4.064E+05	-8.153E+03	-4.599E+03	 1.721E+06	 1.667E+06	 3.007E+05	 3.461E-01	 1.791E-03	 2.492E+05
         1.0300	 1.387E+00	 4.065E+05	-8.160E+03	-4.602E+03	 1.721E+06	 1.669E+06	 3.004E+05	 3.472E-01	 1.797E-03	 2.500E+05
         1.0400	 1.391E+00	 4.066E+05	-8.167E+03	-4.606E+03	 1.722E+06	 1.671E+06	 3.001E+05	 3.483E-01	 1.803E-03	 2.508E+05
         1.0500	 1.395E+00	 4.067E+05	-8.174E+03	-4.609E+03	 1.722E+06	 1.673E+06	 2.998E+05	 3.493E-01	 1.809E-03	 2.516E+05
         1.0600	 1.400E+00	 4.068E+05	-8.181E+03	-4.612E+03	 1.722E+06	 1.675E+06	 2.995E+05	 3.504E-01	 1.815E-03	 2.524E+05
         1.0700	 1.404E+00	 4.069E+05	-8.188E+03	-4.615E+03	 1.723E+06	 1.677E+06	 2.991E+05	 3.514E-01	 1.821E-03	 2.533E+05
         1.0800	 1.408E+00	 4.070E+05	-8.194E+03	-4.618E+03	 1.723E+06	 1.680E+06	 2.987E+05	 3.525E-01	 1.826E-03	 2.541E+05
         1.0900	 1.412E+00	 4.070E+05	-8.201E+03	-4.621E+03	 1.723E+06	 1.682E+06	 2.984E+05	 3.536E-01	 1.832E-03	 2.549E+05
         1.1000	 1.416E+00	 4.071E+05	-8.207E+03	-4.624E+03	 1.724E+06	 1.684E+06	 2.980E+05	 3.546E-01	 1.838E-03	 2.557E+05
         1.1100	 1.421E+00	 4.072E+05	-8.213E+03	-4.626E+03	 1.724E+06	 1.686E+06	 2.976E+05	 3.557E-01	 1.844E-03	 2.565E+05
         1.1200	 1.425E+00	 4.073E+05	-8.219E+03	-4.629E+03	 1.724E+06	 1.688E+06	 2.972E+05	 3.567E-01	 1.850E-03	 2.573E+05
         1.1300	 1.429E+00	 4.074E+05	-8.226E+03	-4.631E+03	 1.725E+06	 1.690E+06	 2.967E+05	 3.578E-01	 1.856E-03	 2.581E+05
         1.1400	 1.433E+00	 4.075E+05	-8.231E+03	-4.633E+03	 1.725E+06	 1.692E+06	 2.963E+05	 3.589E-01	 1.862E-03	 2.590E+05
         1.1500	 1.438E+00	 4.076E+05	-8.237E+03	-4.636E+03	 1.725E+06	 1.694E+06	 2.958E+05	 3.599E-01	 1.867E-03	 2.598E+05
         1.1600	 1.442E+00	 4.077E+05	-8.243E+03	-4.638E+03	 1.726E+06	 1.696E+06	 2.954E+05	 3.610E-01	 1.873E-03	 2.606E+05
         1.1700	 1.446E+00	 4.077E+05	-8.249E+03	-4.639E+03	 1.726E+06	 1.698E+06	 2.949E+05	 3.620E-01	 1.879E-03	 2.614E+05
         1.1800	 1.450E+00	 4.078E+05	-8.254E+03	-4.641E+03	 1.727E+06	 1.700E+06	 2.944E+05	 3.631E-01	 1.885E-03	 2.622E+05
         1.1900	 1.455E+00	 4.079E+05	-8.260E+03	-4.643E+03	 1.727E+06	 1.702E+06	 2.939E+05	 3.642E-01	 1.891E-03	 2.631E+05
         1.2000	 1.459E+00	 4.080E+05	-8.265E+03	-4.644E+03	 1.727E+06	 1.704E+06	 2.934E+05	 3.652E-01	 1.897E-03	 2.639E+05
         1.2100	 1.463E+00	 4.081E+05	-8.270E+03	-4.646E+03	 1.728E+06	 1.705E+06	 2.929E+05	 3.663E-01	 1.903E-03	 2.647E+05
         1.2200	 1.467E+00	 4.082E+05	-8.276E+03	-4.647E+03	 1.728E+06	 1.707E+06	 2.923E+05	 3.673E-01	 1.909E-03	 2.655E+05
         1.2300	 1.472E+00	 4.083E+05	-8.281E+03	-4.648E+03	 1.728E+06	 1.709E+06	 2.918E+05	 3.684E-01	 1.915E-03	 2.663E+05
         1.2400	 1.476E+00	 4.084E+05	-8.286E+03	-4.649E+03	 1.729E+06	 1.711E+06	 2.912E+05	 3.695E-01	 1.921E-03	 2.672E+05
         1.2500	 1.480E+00	 4.085E+05	-8.291E+03	-4.650E+03	 1.729E+06	 1.713E+06	 2.906E+05	 3.705E-01	 1.927E-03	 2.680E+05
         1.2600	 1.484E+00	 4.086E+05	-8.296E+03	-4.653E+03	 1.729E+06	 1.715E+06	 2.902E+05	 3.716E-01	 1.933E-03	 2.688E+05
         1.2700	 1.489E+00	 4.087E+05	-8.301E+03	-4.654E+03	 1.730E+06	 1.717E+06	 2.896E+05	 3.727E-01	 1.938E-03	 2.697E+05
         1.2800	 1.493E+00	 4.088E+05	-8.306E+03	-4.654E+03	 1.730E+06	 1.719E+06	 2.890E+05	 3.737E-01	 1.944E-03	 2.705E+05
         1.2900	 1.497E+00	 4.089E+05	-8.310E+03	-4.655E+03	 1.731E+06	 1.721E+06	 2.884E+05	 3.748E-01	 1.950E-03	 2.713E+05
         1.3000	 1.501E+00	 4.090E+05	-8.314E+03	-4.655E+03	 1.731E+06	 1.722E+06	 2.876E+05	 3.759E-01	 1.956E-03	 2.721E+05
         1.3100	 1.506E+00	 4.090E+05	-8.319E+03	-4.654E+03	 1.731E+06	 1.724E+06	 2.869E+05	 3.769E-01	 1.962E-03	 2.730E+05
         1.3200	 1.510E+00	 4.091E+05	-8.323E+03	-4.654E+03	 1.732E+06	 1.726E+06	 2.862E+05	 3.780E-01	 1.968E-03	 2.738E+05
         1.3300	 1.514E+00	 4.092E+05	-8.327E+03	-4.654E+03	 1.732E+06	 1.728E+06	 2.855E+05	 3.790E-01	 1.974E-03	 2.747E+05
         1.3400	 1.518E+00	 4.093E+05	-8.331E+03	-4.654E+03	 1.733E+06	 1.729E+06	 2.848E+05	 3.801E-01	 1.980E-03	 2.755E+05
         1.3500	 1.523E+00	 4.094E+05	-8.336E+03	-4.654E+03	 1.733E+06	 1.731E+06	 2.841E+05	 3.812E-01	 1.986E-03	 2.763E+05
         1.3600	 1.527E+00	 4.095E+05	-8.340E+03	-4.654E+03	 1.733E+06	 1.733E+06	 2.833E+05	 3.822E-01	 1.993E-03	 2.772E+05
         1.3700	 1.531E+00	 4.096E+05	-8.344E+03	-4.654E+03	 1.734E+06	 1.735E+06	 2.826E+05	 3.833E-01	 1.999E-03	 2.780E+05
         1.3800	 1.535E+00	 4.097E+05	-8.348E+03	-4.653E+03	 1.734E+06	 1.736E+06	 2.818E+05	 3.844E-01	 2.005E-03	 2.788E+05
         1.3900	 1.540E+00	 4.098E+05	-8.351E+03	-4.653E+03	 1.735E+06	 1.738E+06	 2.810E+05	 3.854E-01	 2.011E-03	 2.797E+05
         1.4000	 1.544E+00	 4.099E+05	-8.355E+03	-4.652E+03	 1.735E+06	 1.740E+06	 2.802E+05	 3.865E-01	 2.017E-03	 2.805E+05
         1.4100	 1.548E+00	 4.100E+05	-8.359E+03	-4.651E+03	 1.736E+06	 1.742E+06	 2.794E+05	 3.876E-01	 2.023E-03	 2.814E+05
         1.4200	 1.552E+00	 4.101E+05	-8.363E+03	-4.650E+03	 1.736E+06	 1.743E+06	 2.786E+05	 3.886E-01	 2.029E-03	 2.822E+05
         1.4300	 1.557E+00	 4.102E+05	-8.366E+03	-4.649E+03	 1.736E+06	 1.745E+06	 2.778E+05	 3.897E-01	 2.035E-03	 2.831E+05
         1.4400	 1.561E+00	 4.103E+05	-8.371E+03	-4.651E+03	 1.737E+06	 1.747E+06	 2.772E+05	 3.908E-01	 2.041E-03	 2.839E+05
         1.4500	 1.565E+00	 4.104E+05	-8.374E+03	-4.649E+03	 1.737E+06	 1.748E+06	 2.763E+05	 3.918E-01	 2.047E-03	 2.847E+05
         1.4600	 1.569E+00	 4.105E+05	-8.377E+03	-4.648E+03	 1.738E+06	 1.750E+06	 2.754E+05	 3.929E-01	 2.053E-03	 2.856E+05
         1.4700	 1.574E+00	 4.107E+05	-8.381E+03	-4.647E+03	 1.738E+06	 1.751E+06	 2.745E+05	 3.940E-01	 2.059E-03	 2.864E+05
         1.4800	 1.578E+00	 4.108E+05	-8.384E+03	-4.645E+03	 1.739E+06	 1.753E+06	 2.736E+05	 3.951E-01	 2.065E-03	 2.873E+05
         1.4900	 1.582E+00	 4.109E+05	-8.387E+03	-4.643E+03	 1.739E+06	 1.755E+06	 2.726E+05	 3.961E-01	 2.071E-03	 2.881E+05
         1.5000	 1.587E+00	 4.110E+05	-8.389E+03	-4.641E+03	 1.740E+06	 1.756E+06	 2.716E+05	 3.972E-01	 2.078E-03	 2.890E+05
         1.5100	 1.591E+00	 4.111E+05	-8.392E+03	-4.638E+03	 1.740E+06	 1.758E+06	 2.706E+05	 3.983E-01	 2.084E-03	 2.899E+05
         1.5200	 1.595E+00	 4.112E+05	-8.395E+03	-4.636E+03	 1.740E+06	 1.759E+06	 2.696E+05	 3.993E-01	 2.090E-03	 2.907E+05
         1.5300	 1.599E+00	 4.113E+05	-8.397E+03	-4.634E+03	 1.741E+06	 1.761E+06	 2.686E+05	 4.004E-01	 2.096E-03	 2.916E+05
         1.5400	 1.604E+00	 4.114E+05	-8.400E+03	-4.632E+03	 1.741E+06	 1.762E+06	 2.676E+05	 4.015E-01	 2.102E-03	 2.924E+05
         1.5500	 1.608E+00	 4.115E+05	-8.403E+03	-4.630E+03	 1.742E+06	 1.764E+06	 2.666E+05	 4.025E-01	 2.108E-03	 2.933E+05
         1.5600	 1.612E+00	 4.116E+05	-8.406E+03	-4.628E+03	 1.742E+06	 1.765E+06	 2.656E+05	 4.036E-01	 2.115E-03	 2.941E+05
         1.5700	 1.616E+00	 4.117E+05	-8.408E+03	-4.626E+03	 1.743E+06	 1.767E+06	 2.645E+05	 4.047E-01	 2.121E-03	 2.950E+05
         1.5800	 1.621E+00	 4.118E+05	-8.411E+03	-4.623E+03	 1.743E+06	 1.768E+06	 2.635E+05	 4.058E-01	 2.127E-03	 2.959E+05
         1.5900	 1.625E+00	 4.119E+05	-8.413E+03	-4.621E+03	 1.744E+06	 1.770E+06	 2.624E+05	 4.068E-01	 2.133E-03	 2.967E+05
         1.6000	 1.629E+00	 4.121E+05	-8.416E+03	-4.618E+03	 1.744E+06	 1.771E+06	 2.613E+05	 4.079E-01	 2.139E-03	 2.976E+05
         1.6100	 1.634E+00	 4.122E+05	-8.418E+03	-4.616E+03	 1.745E+06	 1.772E+06	 2.602E+05	 4.090E-01	 2.146E-03	 2.985E+05
         1.6200	 1.638E+00	 4.122E+05	-8.424E+03	-4.623E+03	 1.745E+06	 1.774E+06	 2.599E+05	 4.100E-01	 2.151E-03	 2.993E+05
         1.6300	 1.642E+00	 4.124E+05	-8.427E+03	-4.620E+03	 1.745E+06	 1.776E+06	 2.588E+05	 4.111E-01	 2.158E-03	 3.001E+05
         1.6400	 1.646E+00	 4.125E+05	-8.429E+03	-4.617E+03	 1.746E+06	 1.777E+06	 2.576E+05	 4.122E-01	 2.164E-03	 3.010E+05
         1.6500	 1.651E+00	 4.126E+05	-8.431E+03	-4.614E+03	 1.746E+06	 1.778E+06	 2.565E+05	 4.133E-01	 2.170E-03	 3.019E+05
         1.6600	 1.655E+00	 4.127E+05	-8.434E+03	-4.611E+03	 1.747E+06	 1.780E+06	 2.553E+05	 4.143E-01	 2.176E-03	 3.027E+05
         1.6700	 1.659E+00	 4.128E+05	-8.436E+03	-4.608E+03	 1.747E+06	 1.781E+06	 2.541E+05	 4.154E-01	 2.183E-03	 3.036E+05
         1.6800	 1.664E+00	 4.129E+05	-8.438E+03	-4.604E+03	 1.748E+06	 1.782E+06	 2.529E+05	 4.165E-01	 2.189E-03	 3.045E+05
         1.6900	 1.668E+00	 4.130E+05	-8.439E+03	-4.599E+03	 1.748E+06	 1.784E+06	 2.515E+05	 4.176E-01	 2.195E-03	 3.054E+05
         1.7000	 1.672E+00	 4.132E+05	-8.440E+03	-4.594E+03	 1.749E+06	 1.785E+06	 2.502E+05	 4.186E-01	 2.202E-03	 3.062E+05
         1.7100	 1.676E+00	 4.133E+05	-8.442E+03	-4.589E+03	 1.749E+06	 1.786E+06	 2.488E+05	 4.197E-01	 2.208E-03	 3.071E+05
         1.7200	 1.681E+00	 4.134E+05	-8.443E+03	-4.584E+03	 1.750E+06	 1.787E+06	 2.474E+05	 4.208E-01	 2.214E-03	 3.080E+05
         1.7300	 1.685E+00	 4.135E+05	-8.444E+03	-4.578E+03	 1.750E+06	 1.788E+06	 2.459E+05	 4.219E-01	 2.221E-03	 3.089E+05
         1.7400	 1.689E+00	 4.136E+05	-8.446E+03	-4.574E+03	 1.751E+06	 1.790E+06	 2.446E+05	 4.229E-01	 2.227E-03	 3.098E+05
         1.7500	 1.694E+00	 4.138E+05	-8.448E+03	-4.570E+03	 1.752E+06	 1.791E+06	 2.433E+05	 4.240E-01	 2.233E-03	 3.107E+05
         1.7600	 1.698E+00	 4.139E+05	-8.449E+03	-4.567E+03	 1.752E+06	 1.792E+06	 2.420E+05	 4.251E-01	 2.240E-03	 3.115E+05
         1.7700	 1.702E+00	 4.140E+05	-8.451E+03	-4.563E+03	 1.753E+06	 1.793E+06	 2.407E+05	 4.262E-01	 2.246E-03	 3.124E+05
         1.7800	 1.707E+00	 4.141E+05	-8.453E+03	-4.559E+03	 1.753E+06	 1.794E+06	 2.393E+05	 4.272E-01	 2.252E-03	 3.133E+05
         1.7900	 1.711E+00	 4.142E+05	-8.455E+03	-4.555E+03	 1.754E+06	 1.796E+06	 2.380E+05	 4.283E-01	 2.259E-03	 3.142E+05
         1.8000	 1.715E+00	 4.143E+05	-8.456E+03	-4.551E+03	 1.754E+06	 1.797E+06	 2.366E+05	 4.294E-01	 2.265E-03	 3.151E+05
         1.8100	 1.720E+00	 4.143E+05	-8.470E+03	-4.576E+03	 1.754E+06	 1.799E+06	 2.370E+05	 4.305E-01	 2.270E-03	 3.158E+05
         1.8200	 1.724E+00	 4.145E+05	-8.471E+03	-4.572E+03	 1.754E+06	 1.800E+06	 2.356E+05	 4.316E-01	 2.277E-03	 3.167E+05
         1.8300	 1.728E+00	 4.146E+05	-8.473E+03	-4.568E+03	 1.755E+06	 1.801E+06	 2.342E+05	 4.326E-01	 2.283E-03	 3.176E+05
         1.8400	 1.732E+00	 4.147E+05	-8.474E+03	-4.564E+03	 1.755E+06	 1.802E+06	 2.328E+05	 4.337E-01	 2.289E-03	 3.185E+05
         1.8500	 1.737E+00	 4.148E+05	-8.475E+03	-4.559E+03	 1.756E+06	 1.803E+06	 2.313E+05	 4.348E-01	 2.296E-03	 3.194E+05
         1.8600	 1.741E+00	 4.149E+05	-8.477E+03	-4.555E+03	 1.756E+06	 1.804E+06	 2.299E+05	 4.359E-01	 2.302E-03	 3.202E+05
         1.8700	 1.745E+00	 4.151E+05	-8.478E+03	-4.551E+03	 1.757E+06	 1.805E+06	 2.284E+05	 4.370E-01	 2.309E-03	 3.211E+05
         1.8800	 1.750E+00	 4.152E+05	-8.479E+03	-4.546E+03	 1.757E+06	 1.806E+06	 2.269E+05	 4.380E-01	 2.315E-03	 3.220E+05
         1.8900	 1.754E+00	 4.153E+05	-8.480E+03	-4.541E+03	 1.758E+06	 1.807E+06	 2.254E+05	 4.391E-01	 2.321E-03	 3.229E+05
         1.9000	 1.758E+00	 4.154E+05	-8.480E+03	-4.533E+03	 1.759E+06	 1.808E+06	 2.237E+05	 4.402E-01	 2.328E-03	 3.238E+05
         1.9100	 1.763E+00	 4.156E+05	-8.480E+03	-4.525E+03	 1.759E+06	 1.809E+06	 2.219E+05	 4.413E-01	 2.334E-03	 3.247E+05
         1.9200	 1.767E+00	 4.157E+05	-8.480E+03	-4.516E+03	 1.760E+06	 1.810E+06	 2.202E+05	 4.424E-01	 2.341E-03	 3.256E+05
         1.9300	 1.771E+00	 4.158E+05	-8.479E+03	-4.508E+03	 1.760E+06	 1.811E+06	 2.184E+05	 4.434E-01	 2.347E-03	 3.265E+05
         1.9400	 1.776E+00	 4.160E+05	-8.479E+03	-4.499E+03	 1.761E+06	 1.812E+06	 2.166E+05	 4.445E-01	 2.354E-03	 3.274E+05
         1.9500	 1.780E+00	 4.161E+05	-8.479E+03	-4.491E+03	 1.762E+06	 1.813E+06	 2.148E+05	 4.456E-01	 2.361E-03	 3.284E+05
         1.9600	 1.784E+00	 4.162E+05	-8.478E+03	-4.482E+03	 1.762E+06	 1.813E+06	 2.129E+05	 4.467E-01	 2.367E-03	 3.293E+05
         1.9700	 1.789E+00	 4.164E+05	-8.478E+03	-4.473E+03	 1.763E+06	 1.814E+06	 2.111E+05	 4.478E-01	 2.374E-03	 3.302E+05
         1.9800	 1.793E+00	 4.165E+05	-8.480E+03	-4.465E+03	 1.763E+06	 1.815E+06	 2.093E+05	 4.489E-01	 2.380E-03	 3.311E+05
         1.9900	 1.797E+00	 4.166E+05	-8.483E+03	-4.460E+03	 1.764E+06	 1.816E+06	 2.076E+05	 4.499E-01	 2.387E-03	 3.320E+05
         2.0000	 1.802E+00	 4.166E+05	-8.505E+03	-4.501E+03	 1.764E+06	 1.818E+06	 2.080E+05	 4.510E-01	 2.392E-03	 3.328E+05
         2.0100	 1.806E+00	 4.167E+05	-8.508E+03	-4.495E+03	 1.764E+06	 1.819E+06	 2.064E+05	 4.521E-01	 2.399E-03	 3.337E+05
         2.0200	 1.810E+00	 4.168E+05	-8.512E+03	-4.490E+03	 1.765E+06	 1.820E+06	 2.047E+05	 4.532E-01	 2.405E-03	 3.346E+05
         2.0300	 1.815E+00	 4.170E+05	-8.515E+03	-4.484E+03	 1.765E+06	 1.820E+06	 2.029E+05	 4.543E-01	 2.412E-03	 3.355E+05
         2.0400	 1.819E+00	 4.171E+05	-8.518E+03	-4.479E+03	 1.766E+06	 1.821E+06	 2.012E+05	 4.554E-01	 2.418E-03	 3.364E+05
         2.0500	 1.823E+00	 4.172E+05	-8.521E+03	-4.473E+03	 1.767E+06	 1.822E+06	 1.995E+05	 4.565E-01	 2.425E-03	 3.373E+05
         2.0600	 1.828E+00	 4.173E+05	-8.524E+03	-4.468E+03	 1.767E+06	 1.823E+06	 1.977E+05	 4.575E-01	 2.431E-03	 3.382E+05
         2.0700	 1.832E+00	 4.175E+05	-8.527E+03	-4.462E+03	 1.768E+06	 1.824E+06	 1.959E+05	 4.586E-01	 2.438E-03	 3.391E+05
         2.0800	 1.836E+00	 4.176E+05	-8.530E+03	-4.456E+03	 1.768E+06	 1.824E+06	 1.941E+05	 4.597E-01	 2.444E-03	 3.400E+05
         2.0900	 1.841E+00	 4.177E+05	-8.533E+03	-4.450E+03	 1.769E+06	 1.825E+06	 1.923E+05	 4.608E-01	 2.451E-03	 3.410E+05
         2.1000	 1.845E+00	 4.179E+05	-8.536E+03	-4.444E+03	 1.769E+06	 1.826E+06	 1.904E+05	 4.619E-01	 2.458E-03	 3.419E+05
         2.1100	 1.849E+00	 4.180E+05	-8.538E+03	-4.438E+03	 1.770E+06	 1.827E+06	 1.886E+05	 4.630E-01	 2.464E-03	 3.428E+05
         2.1200	 1.854E+00	 4.181E+05	-8.540E+03	-4.430E+03	 1.771E+06	 1.827E+06	 1.867E+05	 4.641E-01	 2.471E-03	 3.437E+05
         2.1300	 1.858E+00	 4.183E+05	-8.542E+03	-4.420E+03	 1.771E+06	 1.828E+06	 1.846E+05	 4.652E-01	 2.478E-03	 3.446E+05
         2.1400	 1.862E+00	 4.180E+05	-8.596E+03	-4.534E+03	 1.770E+06	 1.830E+06	 1.864E+05	 4.662E-01	 2.482E-03	 3.453E+05
         2.1500	 1.867E+00	 4.182E+05	-8.597E+03	-4.524E+03	 1.771E+06	 1.831E+06	 1.843E+05	 4.673E-01	 2.489E-03	 3.462E+05
         2.1600	 1.871E+00	 4.183E+05	-8.598E+03	-4.514E+03	 1.772E+06	 1.832E+06	 1.822E+05	 4.684E-01	 2.495E-03	 3.471E+05
         2.1700	 1.875E+00	 4.185E+05	-8.599E+03	-4.504E+03	 1.772E+06	 1.832E+06	 1.801E+05	 4.695E-01	 2.502E-03	 3.481E+05
         2.1800	 1.880E+00	 4.186E+05	-8.600E+03	-4.494E+03	 1.773E+06	 1.833E+06	 1.779E+05	 4.706E-01	 2.509E-03	 3.490E+05
         2.1900	 1.884E+00	 4.187E+05	-8.601E+03	-4.483E+03	 1.774E+06	 1.833E+06	 1.758E+05	 4.717E-01	 2.516E-03	 3.499E+05
         2.2000	 1.888E+00	 4.189E+05	-8.602E+03	-4.473E+03	 1.774E+06	 1.834E+06	 1.736E+05	 4.728E-01	 2.522E-03	 3.509E+05
         2.2100	 1.893E+00	 4.190E+05	-8.603E+03	-4.462E+03	 1.775E+06	 1.834E+06	 1.714E+05	 4.739E-01	 2.529E-03	 3.518E+05
         2.2200	 1.897E+00	 4.192E+05	-8.603E+03	-4.452E+03	 1.775E+06	 1.835E+06	 1.692E+05	 4.750E-01	 2.536E-03	 3.527E+05
         2.2300	 1.902E+00	 4.193E+05	-8.604E+03	-4.441E+03	 1.776E+06	 1.835E+06	 1.670E+05	 4.761E-01	 2.543E-03	 3.537E+05
         2.2400	 1.906E+00	 4.195E+05	-8.604E+03	-4.430E+03	 1.777E+06	 1.835E+06	 1.647E+05	 4.771E-01	 2.549E-03	 3.546E+05
         2.2500	 1.910E+00	 4.196E+05	-8.605E+03	-4.421E+03	 1.777E+06	 1.836E+06	 1.625E+05	 4.782E-01	 2.556E-03	 3.556E+05
         2.2600	 1.915E+00	 4.197E+05	-8.607E+03	-4.414E+03	 1.778E+06	 1.836E+06	 1.604E+05	 4.793E-01	 2.563E-03	 3.565E+05
         2.2700	 1.919E+00	 4.199E+05	-8.609E+03	-4.407E+03	 1.779E+06	 1.837E+06	 1.583E+05	 4.804E-01	 2.569E-03	 3.574E+05
         2.2800	 1.923E+00	 4.200E+05	-8.611E+03	-4.399E+03	 1.779E+06	 1.837E+06	 1.561E+05	 4.815E-01	 2.576E-03	 3.584E+05
         2.2900	 1.928E+00	 4.201E+05	-8.612E+03	-4.392E+03	 1.780E+06	 1.838E+06	 1.540E+05	 4.826E-01	 2.583E-03	 3.593E+05
         2.3000	 1.932E+00	 4.203E+05	-8.614E+03	-4.384E+03	 1.780E+06	 1.838E+06	 1.518E+05	 4.837E-01	 2.590E-03	 3.602E+05
         2.3100	 1.936E+00	 4.204E+05	-8.615E+03	-4.376E+03	 1.781E+06	 1.839E+06	 1.496E+05	 4.848E-01	 2.596E-03	 3.612E+05
         2.3200	 1.941E+00	 4.205E+05	-8.617E+03	-4.368E+03	 1.782E+06	 1.839E+06	 1.473E+05	 4.859E-01	 2.603E-03	 3.621E+05
         2.3300	 1.945E+00	 4.207E+05	-8.621E+03	-4.360E+03	 1.782E+06	 1.839E+06	 1.451E+05	 4.870E-01	 2.610E-03	 3.630E+05
         2.3400	 1.950E+00	 4.208E+05	-8.625E+03	-4.353E+03	 1.783E+06	 1.840E+06	 1.428E+05	 4.881E-01	 2.617E-03	 3.640E+05