
Predictions were generated on 18-Jul-2019 at 17:30:44 using AeroDyn_Interface_Subs
 AeroDyn


     Time           	RtSkew    	RtSpeed   	RtAeroPwr 	B1Pitch   	B2Pitch   	B2Pitch   	RtVAvgxh  	RtVAvgyh  	RtVAvgzh  	RTAeroFxh 	RTAeroFyh 	RTAeroFzh 	RTAeroMxh 	RTAeroMyh 	RTAeroMzh 	RtTSR     	RtAeroCp  
      (s)           	(deg)     	(rpm)     	(W)       	(deg)     	(deg)     	(deg)     	(m/s)     	(m/s)     	(m/s)     	(N)       	(N)       	(N)       	(N m)     	(N m)     	(N m)     	(-)       	(-)       
         0.0000	 0.000E+00	 1.910E+01	 7.337E+05	 0.000E+00	 0.000E+00	 0.000E+00	 8.700E+00	-2.424E-15	 5.844E-15	 1.932E+05	 2.713E-12	-4.843E-12	 3.668E+05	-2.778E-10	 7.299E-10	 8.448E+00	 4.287E-01
         0.0500	 0.000E+00	 1.910E+01	 7.339E+05	 0.000E+00	 0.000E+00	 0.000E+00	 8.700E+00	 2.853E-15	 4.255E-15	 1.932E+05	 2.650E-13	-9.817E-13	 3.669E+05	-7.863E-11	 4.911E-10	 8.448E+00	 4.288E-01
         0.1000	 0.000E+00	 1.910E+01	 7.339E+05	 0.000E+00	 0.000E+00	 0.000E+00	 8.700E+00	 5.945E-16	 7.108E-15	 1.932E+05	 2.452E-12	-3.615E-12	 3.669E+05	 4.157E-10	 3.589E-10	 8.448E+00	 4.288E-01
         0.1500	 0.000E+00	 1.910E+01	 7.339E+05	 0.000E+00	 0.000E+00	 0.000E+00	 8.700E+00	 1.767E-15	-2.260E-15	 1.932E+05	 1.780E-12	-7.526E-13	 3.669E+05	 1.569E-10	-8.247E-10	 8.448E+00	 4.288E-01
         0.2000	 0.000E+00	 1.910E+01	 7.339E+05	 0.000E+00	 0.000E+00	 0.000E+00	 8.700E+00	-3.187E-15	 2.376E-15	 1.932E+05	 3.750E-13	-2.278E-12	 3.669E+05	 9.448E-10	 1.448E-11	 8.448E+00	 4.288E-01
         0.2500	 0.000E+00	 1.910E+01	 7.339E+05	 0.000E+00	 0.000E+00	 0.000E+00	 8.700E+00	 8.652E-16	 4.472E-15	 1.932E+05	 1.267E-12	-8.666E-13	 3.669E+05	-2.175E-10	 7.130E-10	 8.448E+00	 4.288E-01
         0.3000	 0.000E+00	 1.910E+01	 7.339E+05	 0.000E+00	 0.000E+00	 0.000E+00	 8.700E+00	-2.456E-15	 7.898E-15	 1.932E+05	 9.102E-14	-4.833E-12	 3.669E+05	 1.500E-10	 1.781E-10	 8.448E+00	 4.288E-01
         0.3500	 0.000E+00	 1.910E+01	 7.339E+05	 0.000E+00	 0.000E+00	 0.000E+00	 8.700E+00	-2.963E-15	 6.250E-15	 1.932E+05	 3.187E-12	-1.976E-12	 3.669E+05	-2.791E-10	 6.215E-10	 8.448E+00	 4.288E-01
         0.4000	 0.000E+00	 1.910E+01	 7.339E+05	 0.000E+00	 0.000E+00	 0.000E+00	 8.700E+00	 3.119E-16	 1.848E-15	 1.932E+05	 3.833E-12	-4.412E-13	 3.669E+05	-1.016E-09	 5.313E-10	 8.448E+00	 4.288E-01
         0.4500	 0.000E+00	 1.910E+01	 7.339E+05	 0.000E+00	 0.000E+00	 0.000E+00	 8.700E+00	-2.701E-15	 4.723E-15	 1.932E+05	 2.739E-13	 1.257E-12	 3.669E+05	-3.702E-10	 1.007E-09	 8.448E+00	 4.288E-01
         0.5000	 0.000E+00	 1.910E+01	 7.339E+05	 0.000E+00	 0.000E+00	 0.000E+00	 8.700E+00	-3.074E-15	 2.969E-15	 1.932E+05	 1.209E-12	 1.636E-12	 3.669E+05	 4.908E-11	 4.169E-10	 8.448E+00	 4.288E-01
         0.5500	 0.000E+00	 1.910E+01	 7.339E+05	 0.000E+00	 0.000E+00	 0.000E+00	 8.700E+00	 2.475E-15	 7.091E-15	 1.932E+05	-8.952E-13	-5.227E-12	 3.669E+05	 5.436E-11	 1.145E-09	 8.448E+00	 4.288E-01
         0.6000	 0.000E+00	 1.910E+01	 7.339E+05	 0.000E+00	 0.000E+00	 0.000E+00	 8.700E+00	-4.378E-15	 6.644E-16	 1.932E+05	 2.433E-13	-8.764E-13	 3.669E+05	-2.243E-10	-6.228E-11	 8.448E+00	 4.288E-01
         0.6500	 0.000E+00	 1.910E+01	 7.339E+05	 0.000E+00	 0.000E+00	 0.000E+00	 8.700E+00	-4.740E-15	 7.807E-15	 1.932E+05	-8.806E-13	-2.921E-12	 3.669E+05	-2.730E-10	 8.980E-10	 8.448E+00	 4.288E-01
         0.7000	 0.000E+00	 1.910E+01	 7.339E+05	 0.000E+00	 0.000E+00	 0.000E+00	 8.700E+00	-1.101E-15	 1.738E-15	 1.932E+05	 2.136E-12	-4.407E-12	 3.669E+05	 1.828E-10	 7.132E-10	 8.448E+00	 4.288E-01
         0.7500	 0.000E+00	 1.910E+01	 7.339E+05	 0.000E+00	 0.000E+00	 0.000E+00	 8.700E+00	-1.532E-15	 4.475E-17	 1.932E+05	 1.792E-12	-9.622E-13	 3.669E+05	 3.831E-10	 1.153E-09	 8.448E+00	 4.288E-01
         0.8000	 0.000E+00	 1.910E+01	 7.339E+05	 0.000E+00	 0.000E+00	 0.000E+00	 8.700E+00	-1.708E-15	 4.156E-15	 1.932E+05	 2.471E-12	-2.155E-12	 3.669E+05	 2.654E-10	 1.139E-09	 8.448E+00	 4.288E-01
         0.8500	 0.000E+00	 1.910E+01	 7.339E+05	 0.000E+00	 0.000E+00	 0.000E+00	 8.700E+00	 6.061E-16	-4.147E-15	 1.932E+05	 1.565E-12	-1.299E-12	 3.669E+05	-8.994E-10	-2.683E-10	 8.448E+00	 4.288E-01
         0.9000	 0.000E+00	 1.910E+01	 7.339E+05	 0.000E+00	 0.000E+00	 0.000E+00	 8.700E+00	-2.947E-16	 7.757E-15	 1.932E+05	 2.940E-13	 8.607E-13	 3.669E+05	 2.064E-09	 2.791E-10	 8.448E+00	 4.288E-01
         0.9500	 0.000E+00	 1.910E+01	 7.339E+05	 0.000E+00	 0.000E+00	 0.000E+00	 8.700E+00	-6.375E-15	 4.661E-16	 1.932E+05	 1.931E-12	-2.884E-12	 3.669E+05	-1.385E-09	 1.216E-10	 8.448E+00	 4.288E-01
         1.0000	 0.000E+00	 1.910E+01	 7.339E+05	 0.000E+00	 0.000E+00	 0.000E+00	 8.700E+00	 1.330E-15	 1.481E-15	 1.932E+05	 7.088E-13	-4.629E-12	 3.669E+05	 3.376E-10	-1.974E-10	 8.448E+00	 4.288E-01
         1.0500	 0.000E+00	 1.910E+01	 7.339E+05	 0.000E+00	 0.000E+00	 0.000E+00	 8.700E+00	-7.356E-16	 4.671E-15	 1.932E+05	-1.898E-12	-8.685E-13	 3.669E+05	-8.042E-10	 8.733E-10	 8.448E+00	 4.288E-01
         1.1000	 0.000E+00	 1.910E+01	 7.339E+05	 0.000E+00	 0.000E+00	 0.000E+00	 8.700E+00	-1.587E-15	 3.660E-15	 1.932E+05	 2.616E-12	-3.557E-12	 3.669E+05	-1.736E-10	 1.551E-10	 8.448E+00	 4.288E-01
         1.1500	 0.000E+00	 1.910E+01	 7.339E+05	 0.000E+00	 0.000E+00	 0.000E+00	 8.700E+00	-2.566E-15	 4.451E-15	 1.932E+05	 3.169E-12	-4.806E-12	 3.669E+05	 9.305E-11	 2.431E-10	 8.448E+00	 4.288E-01
         1.2000	 0.000E+00	 1.910E+01	 7.339E+05	 0.000E+00	 0.000E+00	 0.000E+00	 8.700E+00	-9.550E-16	 1.059E-14	 1.932E+05	 1.264E-12	-4.732E-12	 3.669E+05	-7.642E-10	 2.190E-09	 8.448E+00	 4.288E-01
         1.2500	 0.000E+00	 1.910E+01	 7.339E+05	 0.000E+00	 0.000E+00	 0.000E+00	 8.700E+00	-7.885E-15	 1.341E-16	 1.932E+05	-6.210E-13	-2.496E-12	 3.669E+05	-1.200E-10	 1.995E-10	 8.448E+00	 4.288E-01
         1.3000	 0.000E+00	 1.910E+01	 7.339E+05	 0.000E+00	 0.000E+00	 0.000E+00	 8.700E+00	-4.486E-15	 3.664E-17	 1.932E+05	-6.279E-13	-7.998E-13	 3.669E+05	 5.320E-10	 5.090E-10	 8.448E+00	 4.288E-01
         1.3500	 0.000E+00	 1.910E+01	 7.339E+05	 0.000E+00	 0.000E+00	 0.000E+00	 8.700E+00	-3.124E-15	 4.212E-15	 1.932E+05	-7.046E-13	-7.331E-13	 3.669E+05	-6.581E-10	-2.340E-10	 8.448E+00	 4.288E-01
         1.4000	 0.000E+00	 1.910E+01	 7.339E+05	 0.000E+00	 0.000E+00	 0.000E+00	 8.700E+00	 1.014E-15	-3.722E-17	 1.932E+05	-2.419E-12	 2.214E-12	 3.669E+05	 5.668E-10	 6.193E-10	 8.448E+00	 4.288E-01
         1.4500	 0.000E+00	 1.910E+01	 7.339E+05	 0.000E+00	 0.000E+00	 0.000E+00	 8.700E+00	-1.437E-15	 5.143E-15	 1.932E+05	 4.374E-12	 1.542E-12	 3.669E+05	 8.239E-11	 2.469E-10	 8.448E+00	 4.288E-01
         1.5000	 0.000E+00	 1.910E+01	 7.339E+05	 0.000E+00	 0.000E+00	 0.000E+00	 8.700E+00	-3.991E-15	-1.282E-15	 1.932E+05	 0.000E+00	 0.000E+00	 3.669E+05	 4.846E-10	-4.459E-10	 8.448E+00	 4.288E-01
         1.5500	 0.000E+00	 1.910E+01	 7.339E+05	 0.000E+00	 0.000E+00	 0.000E+00	 8.700E+00	-4.770E-15	 1.954E-15	 1.932E+05	 3.579E-12	-1.120E-12	 3.669E+05	-1.108E-09	 9.977E-10	 8.448E+00	 4.288E-01
         1.6000	 0.000E+00	 1.910E+01	 7.339E+05	 0.000E+00	 0.000E+00	 0.000E+00	 8.700E+00	 1.262E-16	 1.673E-15	 1.932E+05	 0.000E+00	 0.000E+00	 3.669E+05	 8.462E-10	-6.067E-10	 8.448E+00	 4.288E-01
         1.6500	 0.000E+00	 1.910E+01	 7.339E+05	 0.000E+00	 0.000E+00	 0.000E+00	 8.700E+00	-3.829E-15	 6.776E-15	 1.932E+05	 2.393E-12	-2.514E-12	 3.669E+05	-6.721E-10	 4.185E-10	 8.448E+00	 4.288E-01
         1.7000	 0.000E+00	 1.910E+01	 7.339E+05	 0.000E+00	 0.000E+00	 0.000E+00	 8.700E+00	-7.046E-15	 3.829E-15	 1.932E+05	-1.489E-12	-2.356E-12	 3.669E+05	 2.453E-10	-9.188E-11	 8.448E+00	 4.288E-01
         1.7500	 0.000E+00	 1.910E+01	 7.339E+05	 0.000E+00	 0.000E+00	 0.000E+00	 8.700E+00	-1.469E-15	 6.940E-15	 1.932E+05	 2.712E-12	-3.367E-12	 3.669E+05	 6.272E-10	 2.027E-09	 8.448E+00	 4.288E-01
         1.8000	 0.000E+00	 1.910E+01	 7.339E+05	 0.000E+00	 0.000E+00	 0.000E+00	 8.700E+00	-1.949E-15	 5.608E-16	 1.932E+05	 4.531E-12	 3.865E-13	 3.669E+05	 2.407E-10	-1.503E-10	 8.448E+00	 4.288E-01
         1.8500	 0.000E+00	 1.910E+01	 7.339E+05	 0.000E+00	 0.000E+00	 0.000E+00	 8.700E+00	-4.277E-15	 4.718E-15	 1.932E+05	 3.327E-12	-2.574E-12	 3.669E+05	-8.648E-10	-2.141E-10	 8.448E+00	 4.288E-01
         1.9000	 0.000E+00	 1.910E+01	 7.339E+05	 0.000E+00	 0.000E+00	 0.000E+00	 8.700E+00	-4.509E-15	 2.736E-15	 1.932E+05	 1.651E-12	-1.564E-12	 3.669E+05	 1.512E-10	 4.982E-10	 8.448E+00	 4.288E-01
         1.9500	 0.000E+00	 1.910E+01	 7.339E+05	 0.000E+00	 0.000E+00	 0.000E+00	 8.700E+00	-7.718E-16	 4.304E-15	 1.932E+05	-6.883E-13	-5.945E-13	 3.669E+05	 3.805E-10	-4.405E-10	 8.448E+00	 4.288E-01
         2.0000	 0.000E+00	 1.910E+01	 7.339E+05	 0.000E+00	 0.000E+00	 0.000E+00	 8.700E+00	-9.723E-16	 8.171E-15	 1.932E+05	 1.870E-12	-4.244E-12	 3.669E+05	-7.463E-10	 1.467E-09	 8.448E+00	 4.288E-01
         2.0500	 0.000E+00	 1.910E+01	 7.339E+05	 0.000E+00	 0.000E+00	 0.000E+00	 8.700E+00	-2.747E-15	 7.726E-15	 1.932E+05	 1.338E-12	-2.378E-12	 3.669E+05	-6.595E-10	 6.976E-10	 8.448E+00	 4.288E-01
         2.1000	 0.000E+00	 1.910E+01	 7.339E+05	 0.000E+00	 0.000E+00	 0.000E+00	 8.700E+00	-6.549E-15	 7.324E-15	 1.932E+05	 2.838E-12	-4.218E-12	 3.669E+05	-2.999E-10	 1.267E-09	 8.448E+00	 4.288E-01
         2.1500	 0.000E+00	 1.910E+01	 7.339E+05	 0.000E+00	 0.000E+00	 0.000E+00	 8.700E+00	 1.435E-15	 7.344E-15	 1.932E+05	 2.430E-12	-1.605E-12	 3.669E+05	-9.440E-10	 1.408E-09	 8.448E+00	 4.288E-01
         2.2000	 0.000E+00	 1.910E+01	 7.339E+05	 0.000E+00	 0.000E+00	 0.000E+00	 8.700E+00	 2.991E-15	 4.636E-15	 1.932E+05	 1.656E-12	-3.365E-12	 3.669E+05	 3.570E-10	 5.534E-10	 8.448E+00	 4.288E-01
         2.2500	 0.000E+00	 1.910E+01	 7.339E+05	 0.000E+00	 0.000E+00	 0.000E+00	 8.700E+00	-7.141E-15	 1.157E-15	 1.932E+05	 1.458E-12	-7.508E-13	 3.669E+05	 2.611E-11	-2.314E-10	 8.448E+00	 4.288E-01
         2.3000	 0.000E+00	 1.910E+01	 7.339E+05	 0.000E+00	 0.000E+00	 0.000E+00	 8.700E+00	 2.458E-16	 2.650E-15	 1.932E+05	 5.911E-12	 7.324E-14	 3.669E+05	-1.502E-09	-9.500E-10	 8.448E+00	 4.288E-01
         2.3500	 0.000E+00	 1.910E+01	 7.339E+05	 0.000E+00	 0.000E+00	 0.000E+00	 8.700E+00	-3.674E-15	 1.162E-15	 1.932E+05	 2.265E-12	-1.989E-13	 3.669E+05	-1.235E-09	 5.759E-10	 8.448E+00	 4.288E-01
         2.4000	 0.000E+00	 1.910E+01	 7.339E+05	 0.000E+00	 0.000E+00	 0.000E+00	 8.700E+00	-3.276E-15	-3.065E-15	 1.932E+05	 1.278E-12	-3.020E-12	 3.669E+05	 8.440E-10	 7.675E-11	 8.448E+00	 4.288E-01
         2.4500	 0.000E+00	 1.910E+01	 7.339E+05	 0.000E+00	 0.000E+00	 0.000E+00	 8.700E+00	-3.035E-15	 4.966E-15	 1.932E+05	-1.290E-12	-4.361E-12	 3.669E+05	 5.330E-10	 5.707E-10	 8.448E+00	 4.288E-01
         2.5000	 0.000E+00	 1.910E+01	 7.339E+05	 0.000E+00	 0.000E+00	 0.000E+00	 8.700E+00	-4.925E-15	 2.312E-15	 1.932E+05	 4.582E-12	 9.412E-14	 3.669E+05	-1.053E-09	-5.762E-10	 8.448E+00	 4.288E-01
         2.5500	 0.000E+00	 1.910E+01	 7.339E+05	 0.000E+00	 0.000E+00	 0.000E+00	 8.700E+00	 4.160E-16	 9.557E-15	 1.932E+05	 4.025E-13	-1.243E-12	 3.669E+05	-2.376E-10	-1.375E-10	 8.448E+00	 4.288E-01
         2.6000	 0.000E+00	 1.910E+01	 7.339E+05	 0.000E+00	 0.000E+00	 0.000E+00	 8.700E+00	 1.274E-15	 3.169E-15	 1.932E+05	 6.163E-13	-3.689E-12	 3.669E+05	 1.570E-09	 7.326E-11	 8.448E+00	 4.288E-01
         2.6500	 0.000E+00	 1.910E+01	 7.339E+05	 0.000E+00	 0.000E+00	 0.000E+00	 8.700E+00	-4.924E-16	 4.010E-15	 1.932E+05	 2.573E-12	-5.644E-12	 3.669E+05	-4.691E-10	 9.879E-10	 8.448E+00	 4.288E-01
         2.7000	 0.000E+00	 1.910E+01	 7.339E+05	 0.000E+00	 0.000E+00	 0.000E+00	 8.700E+00	-6.795E-15	 1.296E-15	 1.932E+05	 1.925E-12	-1.934E-12	 3.669E+05	 1.261E-10	 1.193E-09	 8.448E+00	 4.288E-01
         2.7500	 0.000E+00	 1.910E+01	 7.339E+05	 0.000E+00	 0.000E+00	 0.000E+00	 8.700E+00	-3.887E-15	 1.686E-15	 1.932E+05	-2.379E-13	-5.471E-12	 3.669E+05	 9.365E-10	 1.062E-09	 8.448E+00	 4.288E-01
         2.8000	 0.000E+00	 1.910E+01	 7.339E+05	 0.000E+00	 0.000E+00	 0.000E+00	 8.700E+00	-7.100E-15	 2.159E-15	 1.932E+05	 2.262E-12	-1.777E-12	 3.669E+05	 9.056E-10	 3.185E-10	 8.448E+00	 4.288E-01
         2.8500	 0.000E+00	 1.910E+01	 7.339E+05	 0.000E+00	 0.000E+00	 0.000E+00	 8.700E+00	-1.266E-15	 4.213E-15	 1.932E+05	 2.707E-12	-3.202E-12	 3.669E+05	-1.082E-10	 2.062E-10	 8.448E+00	 4.288E-01
         2.9000	 0.000E+00	 1.910E+01	 7.339E+05	 0.000E+00	 0.000E+00	 0.000E+00	 8.700E+00	-3.226E-16	 4.527E-15	 1.932E+05	-8.435E-13	-3.400E-13	 3.669E+05	-2.595E-10	 2.092E-11	 8.448E+00	 4.288E-01
         2.9500	 0.000E+00	 1.910E+01	 7.339E+05	 0.000E+00	 0.000E+00	 0.000E+00	 8.700E+00	 7.998E-17	 3.216E-15	 1.932E+05	 2.509E-12	-2.112E-12	 3.669E+05	 3.537E-10	-3.821E-10	 8.448E+00	 4.288E-01
         3.0000	 0.000E+00	 1.910E+01	 7.339E+05	 0.000E+00	 0.000E+00	 0.000E+00	 8.700E+00	-5.652E-17	 9.483E-15	 1.932E+05	 2.567E-12	-1.374E-12	 3.669E+05	 3.010E-10	 2.926E-10	 8.448E+00	 4.288E-01
         3.0500	 0.000E+00	 1.910E+01	 7.339E+05	 0.000E+00	 0.000E+00	 0.000E+00	 8.700E+00	-4.270E-15	 5.935E-15	 1.932E+05	 5.136E-12	-1.397E-12	 3.669E+05	-2.030E-09	 5.316E-10	 8.448E+00	 4.288E-01
         3.1000	 0.000E+00	 1.910E+01	 7.339E+05	 0.000E+00	 0.000E+00	 0.000E+00	 8.700E+00	-1.500E-15	 1.976E-15	 1.932E+05	-4.394E-13	 9.170E-13	 3.669E+05	 8.305E-10	 9.175E-10	 8.448E+00	 4.288E-01
         3.1500	 0.000E+00	 1.910E+01	 7.339E+05	 0.000E+00	 0.000E+00	 0.000E+00	 8.700E+00	 6.015E-16	 2.735E-15	 1.932E+05	 2.258E-12	-2.650E-13	 3.669E+05	-3.067E-10	 2.380E-09	 8.448E+00	 4.288E-01
         3.2000	 0.000E+00	 1.910E+01	 7.339E+05	 0.000E+00	 0.000E+00	 0.000E+00	 8.700E+00	 1.294E-15	 6.848E-15	 1.932E+05	 2.640E-14	-9.371E-13	 3.669E+05	 2.842E-10	-6.261E-11	 8.448E+00	 4.288E-01
         3.2500	 0.000E+00	 1.910E+01	 7.339E+05	 0.000E+00	 0.000E+00	 0.000E+00	 8.700E+00	-4.601E-16	 3.963E-15	 1.932E+05	 1.647E-12	 1.374E-12	 3.669E+05	 3.491E-10	 1.306E-10	 8.448E+00	 4.288E-01
         3.3000	 0.000E+00	 1.910E+01	 7.339E+05	 0.000E+00	 0.000E+00	 0.000E+00	 8.700E+00	-1.493E-15	 5.232E-15	 1.932E+05	 5.635E-14	 9.697E-13	 3.669E+05	 9.426E-11	 2.129E-10	 8.448E+00	 4.288E-01
         3.3500	 0.000E+00	 1.910E+01	 7.339E+05	 0.000E+00	 0.000E+00	 0.000E+00	 8.700E+00	 1.690E-15	 8.014E-15	 1.932E+05	 2.474E-12	-3.498E-12	 3.669E+05	 6.476E-10	 1.676E-10	 8.448E+00	 4.288E-01
         3.4000	 0.000E+00	 1.910E+01	 7.339E+05	 0.000E+00	 0.000E+00	 0.000E+00	 8.700E+00	-2.831E-16	 2.250E-15	 1.932E+05	 4.020E-12	-6.206E-13	 3.669E+05	 7.442E-10	 4.316E-11	 8.448E+00	 4.288E-01
         3.4500	 0.000E+00	 1.910E+01	 7.339E+05	 0.000E+00	 0.000E+00	 0.000E+00	 8.700E+00	 4.804E-17	 2.176E-15	 1.932E+05	 3.605E-12	-5.554E-12	 3.669E+05	-1.056E-09	 2.155E-09	 8.448E+00	 4.288E-01
         3.5000	 0.000E+00	 1.910E+01	 7.339E+05	 0.000E+00	 0.000E+00	 0.000E+00	 8.700E+00	-1.021E-15	 5.157E-15	 1.932E+05	-3.173E-13	-4.977E-12	 3.669E+05	 2.199E-10	 4.461E-10	 8.448E+00	 4.288E-01
         3.5500	 0.000E+00	 1.910E+01	 7.339E+05	 0.000E+00	 0.000E+00	 0.000E+00	 8.700E+00	-2.815E-15	 2.757E-15	 1.932E+05	 3.320E-12	-4.331E-12	 3.669E+05	-1.007E-09	 5.483E-10	 8.448E+00	 4.288E-01
         3.6000	 0.000E+00	 1.910E+01	 7.339E+05	 0.000E+00	 0.000E+00	 0.000E+00	 8.700E+00	-1.394E-16	 4.992E-15	 1.932E+05	 1.252E-12	-2.950E-13	 3.669E+05	 3.348E-10	 3.440E-10	 8.448E+00	 4.288E-01
         3.6500	 0.000E+00	 1.910E+01	 7.339E+05	 0.000E+00	 0.000E+00	 0.000E+00	 8.700E+00	-7.551E-16	 5.677E-15	 1.932E+05	 1.815E-12	-1.645E-12	 3.669E+05	 6.277E-10	 3.063E-10	 8.448E+00	 4.288E-01
         3.7000	 0.000E+00	 1.910E+01	 7.339E+05	 0.000E+00	 0.000E+00	 0.000E+00	 8.700E+00	 2.679E-15	 4.406E-15	 1.932E+05	 1.864E-12	 2.040E-13	 3.669E+05	-8.071E-11	 2.184E-10	 8.448E+00	 4.288E-01
         3.7500	 0.000E+00	 1.910E+01	 7.339E+05	 0.000E+00	 0.000E+00	 0.000E+00	 8.700E+00	-3.238E-15	 3.046E-15	 1.932E+05	 2.218E-12	-1.304E-12	 3.669E+05	 4.986E-11	 7.346E-10	 8.448E+00	 4.288E-01
         3.8000	 0.000E+00	 1.910E+01	 7.339E+05	 0.000E+00	 0.000E+00	 0.000E+00	 8.700E+00	-7.574E-16	 3.971E-15	 1.932E+05	 3.425E-12	-1.309E-12	 3.669E+05	-1.507E-10	 2.122E-10	 8.448E+00	 4.288E-01
         3.8500	 0.000E+00	 1.910E+01	 7.339E+05	 0.000E+00	 0.000E+00	 0.000E+00	 8.700E+00	-7.012E-15	 8.411E-15	 1.932E+05	 2.944E-13	-5.449E-12	 3.669E+05	 2.831E-11	 1.634E-09	 8.448E+00	 4.288E-01
         3.9000	 0.000E+00	 1.910E+01	 7.339E+05	 0.000E+00	 0.000E+00	 0.000E+00	 8.700E+00	 7.984E-16	 2.195E-15	 1.932E+05	 4.005E-12	-2.005E-12	 3.669E+05	-1.790E-10	 1.174E-09	 8.448E+00	 4.288E-01
         3.9500	 0.000E+00	 1.910E+01	 7.339E+05	 0.000E+00	 0.000E+00	 0.000E+00	 8.700E+00	-1.216E-16	 3.961E-15	 1.932E+05	 2.435E-12	-2.197E-12	 3.669E+05	 2.033E-11	 9.384E-10	 8.448E+00	 4.288E-01
         4.0000	 0.000E+00	 1.910E+01	 7.339E+05	 0.000E+00	 0.000E+00	 0.000E+00	 8.700E+00	 4.780E-16	 4.764E-15	 1.932E+05	 2.196E-13	-9.929E-13	 3.669E+05	-3.392E-10	-3.949E-10	 8.448E+00	 4.288E-01
         4.0500	 0.000E+00	 1.910E+01	 7.339E+05	 0.000E+00	 0.000E+00	 0.000E+00	 8.700E+00	 2.372E-15	 3.292E-15	 1.932E+05	 3.085E-13	 8.556E-13	 3.669E+05	 1.168E-09	 3.215E-10	 8.448E+00	 4.288E-01
         4.1000	 0.000E+00	 1.910E+01	 7.339E+05	 0.000E+00	 0.000E+00	 0.000E+00	 8.700E+00	-2.585E-15	 5.251E-15	 1.932E+05	 2.549E-12	-3.235E-12	 3.669E+05	-6.689E-10	-4.544E-10	 8.448E+00	 4.288E-01
         4.1500	 0.000E+00	 1.910E+01	 7.339E+05	 0.000E+00	 0.000E+00	 0.000E+00	 8.700E+00	-4.430E-15	 4.648E-15	 1.932E+05	 3.149E-12	-5.106E-12	 3.669E+05	-1.020E-09	 6.196E-10	 8.448E+00	 4.288E-01
         4.2000	 0.000E+00	 1.910E+01	 7.339E+05	 0.000E+00	 0.000E+00	 0.000E+00	 8.700E+00	-5.527E-16	 1.813E-15	 1.932E+05	 1.730E-12	 9.734E-13	 3.669E+05	 7.219E-10	 3.893E-11	 8.448E+00	 4.288E-01
         4.2500	 0.000E+00	 1.910E+01	 7.339E+05	 0.000E+00	 0.000E+00	 0.000E+00	 8.700E+00	-4.818E-15	 2.176E-15	 1.932E+05	-1.821E-13	-3.547E-12	 3.669E+05	-1.069E-09	 9.877E-10	 8.448E+00	 4.288E-01
         4.3000	 0.000E+00	 1.910E+01	 7.339E+05	 0.000E+00	 0.000E+00	 0.000E+00	 8.700E+00	-3.507E-15	 5.641E-15	 1.932E+05	 1.590E-12	 2.320E-12	 3.669E+05	-2.901E-10	-2.363E-11	 8.448E+00	 4.288E-01
         4.3500	 0.000E+00	 1.910E+01	 7.339E+05	 0.000E+00	 0.000E+00	 0.000E+00	 8.700E+00	-4.019E-15	 4.144E-15	 1.932E+05	 2.007E-12	 3.263E-13	 3.669E+05	 8.698E-10	-8.080E-10	 8.448E+00	 4.288E-01
         4.4000	 0.000E+00	 1.910E+01	 7.339E+05	 0.000E+00	 0.000E+00	 0.000E+00	 8.700E+00	 3.256E-15	 1.885E-15	 1.932E+05	 5.593E-13	 8.492E-13	 3.669E+05	-4.242E-10	-1.591E-09	 8.448E+00	 4.288E-01
         4.4500	 0.000E+00	 1.910E+01	 7.339E+05	 0.000E+00	 0.000E+00	 0.000E+00	 8.700E+00	-7.362E-15	 3.092E-15	 1.932E+05	 1.687E-12	-3.729E-12	 3.669E+05	-2.197E-10	 1.051E-09	 8.448E+00	 4.288E-01
         4.5000	 0.000E+00	 1.910E+01	 7.339E+05	 0.000E+00	 0.000E+00	 0.000E+00	 8.700E+00	-3.939E-15	 6.024E-15	 1.932E+05	 4.046E-12	-6.315E-12	 3.669E+05	-6.620E-10	-2.229E-10	 8.448E+00	 4.288E-01
         4.5500	 0.000E+00	 1.910E+01	 7.339E+05	 0.000E+00	 0.000E+00	 0.000E+00	 8.700E+00	-7.230E-15	 3.492E-15	 1.932E+05	 2.179E-12	-1.368E-12	 3.669E+05	-2.270E-10	-5.190E-11	 8.448E+00	 4.288E-01
         4.6000	 0.000E+00	 1.910E+01	 7.339E+05	 0.000E+00	 0.000E+00	 0.000E+00	 8.700E+00	-3.819E-16	 4.165E-15	 1.932E+05	 2.935E-12	-5.132E-12	 3.669E+05	-3.759E-10	 1.126E-09	 8.448E+00	 4.288E-01
         4.6500	 0.000E+00	 1.910E+01	 7.339E+05	 0.000E+00	 0.000E+00	 0.000E+00	 8.700E+00	 2.243E-15	 5.073E-15	 1.932E+05	 4.771E-13	-8.979E-13	 3.669E+05	-2.155E-10	-7.040E-10	 8.448E+00	 4.288E-01
         4.7000	 0.000E+00	 1.910E+01	 7.339E+05	 0.000E+00	 0.000E+00	 0.000E+00	 8.700E+00	 2.807E-15	 2.024E-15	 1.932E+05	 1.497E-12	 1.711E-12	 3.669E+05	 1.511E-10	 4.556E-10	 8.448E+00	 4.288E-01
         4.7500	 0.000E+00	 1.910E+01	 7.339E+05	 0.000E+00	 0.000E+00	 0.000E+00	 8.700E+00	-3.927E-15	 5.789E-15	 1.932E+05	 2.892E-13	-9.748E-13	 3.669E+05	-1.075E-10	 7.284E-10	 8.448E+00	 4.288E-01
         4.8000	 0.000E+00	 1.910E+01	 7.339E+05	 0.000E+00	 0.000E+00	 0.000E+00	 8.700E+00	-2.746E-15	 3.092E-15	 1.932E+05	-2.188E-13	 6.179E-14	 3.669E+05	 7.552E-10	-1.181E-09	 8.448E+00	 4.288E-01
         4.8500	 0.000E+00	 1.910E+01	 7.339E+05	 0.000E+00	 0.000E+00	 0.000E+00	 8.700E+00	 1.669E-15	 2.337E-15	 1.932E+05	-1.423E-12	-2.372E-12	 3.669E+05	 9.222E-10	 1.388E-09	 8.448E+00	 4.288E-01
         4.9000	 0.000E+00	 1.910E+01	 7.339E+05	 0.000E+00	 0.000E+00	 0.000E+00	 8.700E+00	-1.469E-15	 7.650E-15	 1.932E+05	 4.431E-13	-1.251E-12	 3.669E+05	 1.118E-09	 9.958E-10	 8.448E+00	 4.288E-01
         4.9500	 0.000E+00	 1.910E+01	 7.339E+05	 0.000E+00	 0.000E+00	 0.000E+00	 8.700E+00	 5.512E-16	 8.277E-15	 1.932E+05	 5.603E-13	 1.805E-12	 3.669E+05	-1.175E-10	 3.537E-10	 8.448E+00	 4.288E-01
         5.0000	 0.000E+00	 1.910E+01	 7.339E+05	 0.000E+00	 0.000E+00	 0.000E+00	 8.700E+00	-4.048E-15	-1.042E-15	 1.932E+05	-1.367E-12	-7.036E-14	 3.669E+05	 5.268E-10	-1.018E-09	 8.448E+00	 4.288E-01
         5.0500	 0.000E+00	 1.910E+01	 7.339E+05	 0.000E+00	 0.000E+00	 0.000E+00	 8.700E+00	 9.470E-16	 3.753E-15	 1.932E+05	 1.475E-12	-2.718E-12	 3.669E+05	-5.787E-10	 2.411E-10	 8.448E+00	 4.288E-01
         5.1000	 0.000E+00	 1.910E+01	 7.339E+05	 0.000E+00	 0.000E+00	 0.000E+00	 8.700E+00	-2.764E-15	-1.037E-15	 1.932E+05	 8.742E-13	-1.047E-12	 3.669E+05	 1.632E-10	 8.945E-10	 8.448E+00	 4.288E-01
         5.1500	 0.000E+00	 1.910E+01	 7.339E+05	 0.000E+00	 0.000E+00	 0.000E+00	 8.700E+00	-2.627E-15	-9.717E-17	 1.932E+05	 5.102E-13	-7.529E-13	 3.669E+05	 3.918E-10	-5.782E-10	 8.448E+00	 4.288E-01
         5.2000	 0.000E+00	 1.910E+01	 7.339E+05	 0.000E+00	 0.000E+00	 0.000E+00	 8.700E+00	-1.285E-15	 1.206E-15	 1.932E+05	 1.881E-12	-1.568E-12	 3.669E+05	-1.600E-09	-4.678E-10	 8.448E+00	 4.288E-01
         5.2500	 0.000E+00	 1.910E+01	 7.339E+05	 0.000E+00	 0.000E+00	 0.000E+00	 8.700E+00	-8.760E-17	 2.379E-15	 1.932E+05	 2.730E-12	-1.817E-12	 3.669E+05	 8.972E-11	-2.149E-10	 8.448E+00	 4.288E-01
         5.3000	 0.000E+00	 1.910E+01	 7.339E+05	 0.000E+00	 0.000E+00	 0.000E+00	 8.700E+00	-4.225E-15	 5.267E-15	 1.932E+05	 2.195E-12	-4.085E-12	 3.669E+05	-1.298E-09	 1.065E-09	 8.448E+00	 4.288E-01
         5.3500	 0.000E+00	 1.910E+01	 7.339E+05	 0.000E+00	 0.000E+00	 0.000E+00	 8.700E+00	-3.678E-15	 5.663E-15	 1.932E+05	 3.030E-12	-1.254E-12	 3.669E+05	-1.831E-10	-2.736E-10	 8.448E+00	 4.288E-01
         5.4000	 0.000E+00	 1.910E+01	 7.339E+05	 0.000E+00	 0.000E+00	 0.000E+00	 8.700E+00	-6.606E-15	 1.746E-15	 1.932E+05	 2.784E-12	-5.215E-12	 3.669E+05	-2.270E-10	 1.148E-09	 8.448E+00	 4.288E-01
         5.4500	 0.000E+00	 1.910E+01	 7.339E+05	 0.000E+00	 0.000E+00	 0.000E+00	 8.700E+00	 2.820E-15	 7.650E-15	 1.932E+05	 4.507E-13	-9.115E-13	 3.669E+05	-5.759E-10	 1.400E-09	 8.448E+00	 4.288E-01
         5.5000	 0.000E+00	 1.910E+01	 7.339E+05	 0.000E+00	 0.000E+00	 0.000E+00	 8.700E+00	-7.871E-15	 6.428E-15	 1.932E+05	 1.430E-12	-3.808E-12	 3.669E+05	-1.158E-10	 1.213E-11	 8.448E+00	 4.288E-01
         5.5500	 0.000E+00	 1.910E+01	 7.339E+05	 0.000E+00	 0.000E+00	 0.000E+00	 8.700E+00	-4.755E-15	 3.831E-15	 1.932E+05	 5.593E-13	-2.902E-12	 3.669E+05	 5.700E-10	-1.182E-10	 8.448E+00	 4.288E-01
         5.6000	 0.000E+00	 1.910E+01	 7.339E+05	 0.000E+00	 0.000E+00	 0.000E+00	 8.700E+00	-1.451E-15	 7.466E-15	 1.932E+05	 5.394E-13	-2.076E-12	 3.669E+05	 2.934E-10	 1.128E-09	 8.448E+00	 4.288E-01
         5.6500	 0.000E+00	 1.910E+01	 7.339E+05	 0.000E+00	 0.000E+00	 0.000E+00	 8.700E+00	-3.589E-17	-1.500E-15	 1.932E+05	 1.523E-12	-1.641E-12	 3.669E+05	 9.973E-10	 3.329E-10	 8.448E+00	 4.288E-01
         5.7000	 0.000E+00	 1.910E+01	 7.339E+05	 0.000E+00	 0.000E+00	 0.000E+00	 8.700E+00	-4.533E-15	 5.049E-15	 1.932E+05	 7.506E-13	 6.245E-13	 3.669E+05	-6.041E-10	-1.984E-10	 8.448E+00	 4.288E-01
         5.7500	 0.000E+00	 1.910E+01	 7.339E+05	 0.000E+00	 0.000E+00	 0.000E+00	 8.700E+00	-3.214E-17	 5.102E-15	 1.932E+05	-9.846E-13	-4.253E-13	 3.669E+05	-1.688E-10	-4.493E-10	 8.448E+00	 4.288E-01
         5.8000	 0.000E+00	 1.910E+01	 7.339E+05	 0.000E+00	 0.000E+00	 0.000E+00	 8.700E+00	 4.879E-16	 6.168E-15	 1.932E+05	-1.594E-12	-2.226E-12	 3.669E+05	 8.808E-12	 9.092E-10	 8.448E+00	 4.288E-01
         5.8500	 0.000E+00	 1.910E+01	 7.339E+05	 0.000E+00	 0.000E+00	 0.000E+00	 8.700E+00	-8.006E-15	-1.326E-15	 1.932E+05	 3.399E-13	 9.584E-13	 3.669E+05	 2.888E-10	 3.567E-11	 8.448E+00	 4.288E-01
         5.9000	 0.000E+00	 1.910E+01	 7.339E+05	 0.000E+00	 0.000E+00	 0.000E+00	 8.700E+00	-4.082E-16	 3.224E-15	 1.932E+05	-2.603E-12	-5.518E-12	 3.669E+05	-2.816E-10	 1.111E-09	 8.448E+00	 4.288E-01
         5.9500	 0.000E+00	 1.910E+01	 7.339E+05	 0.000E+00	 0.000E+00	 0.000E+00	 8.700E+00	-2.585E-15	 1.988E-15	 1.932E+05	 1.988E-12	-1.431E-12	 3.669E+05	-2.408E-10	 8.126E-10	 8.448E+00	 4.288E-01
         6.0000	 0.000E+00	 1.910E+01	 7.339E+05	 0.000E+00	 0.000E+00	 0.000E+00	 8.700E+00	 3.219E-15	 7.859E-15	 1.932E+05	 4.145E-13	-2.846E-12	 3.669E+05	 5.178E-10	 1.043E-09	 8.448E+00	 4.288E-01
         6.0500	 0.000E+00	 1.910E+01	 7.339E+05	 0.000E+00	 0.000E+00	 0.000E+00	 8.700E+00	-3.436E-15	 5.844E-15	 1.932E+05	 2.478E-12	-3.920E-12	 3.669E+05	 1.772E-11	 1.254E-09	 8.448E+00	 4.288E-01
         6.1000	 0.000E+00	 1.910E+01	 7.339E+05	 0.000E+00	 0.000E+00	 0.000E+00	 8.700E+00	-3.019E-15	 8.419E-15	 1.932E+05	 3.590E-12	-2.791E-12	 3.669E+05	-2.053E-11	 9.598E-10	 8.448E+00	 4.288E-01
         6.1500	 0.000E+00	 1.910E+01	 7.339E+05	 0.000E+00	 0.000E+00	 0.000E+00	 8.700E+00	-3.694E-15	 5.172E-15	 1.932E+05	 1.499E-12	-3.437E-12	 3.669E+05	 1.148E-10	 1.928E-11	 8.448E+00	 4.288E-01
         6.2000	 0.000E+00	 1.910E+01	 7.339E+05	 0.000E+00	 0.000E+00	 0.000E+00	 8.700E+00	-5.235E-15	 5.237E-15	 1.932E+05	 1.603E-12	-3.539E-12	 3.669E+05	 1.526E-09	-1.319E-10	 8.448E+00	 4.288E-01
         6.2500	 0.000E+00	 1.910E+01	 7.339E+05	 0.000E+00	 0.000E+00	 0.000E+00	 8.700E+00	-2.144E-15	 2.581E-15	 1.932E+05	 3.151E-12	-1.016E-12	 3.669E+05	-7.910E-10	 7.255E-10	 8.448E+00	 4.288E-01
         6.3000	 0.000E+00	 1.910E+01	 7.339E+05	 0.000E+00	 0.000E+00	 0.000E+00	 8.700E+00	-6.815E-15	 6.820E-15	 1.932E+05	 4.265E-12	-2.409E-12	 3.669E+05	-1.176E-09	 8.629E-10	 8.448E+00	 4.288E-01
         6.3500	 0.000E+00	 1.910E+01	 7.339E+05	 0.000E+00	 0.000E+00	 0.000E+00	 8.700E+00	 3.543E-15	 3.453E-15	 1.932E+05	 8.954E-13	-1.148E-12	 3.669E+05	 1.181E-09	 4.370E-10	 8.448E+00	 4.288E-01
         6.4000	 0.000E+00	 1.910E+01	 7.339E+05	 0.000E+00	 0.000E+00	 0.000E+00	 8.700E+00	-1.370E-15	 5.193E-15	 1.932E+05	 1.387E-12	-4.331E-12	 3.669E+05	-6.300E-10	 1.204E-09	 8.448E+00	 4.288E-01
         6.4500	 0.000E+00	 1.910E+01	 7.339E+05	 0.000E+00	 0.000E+00	 0.000E+00	 8.700E+00	-2.147E-15	 7.135E-15	 1.932E+05	-2.368E-13	 1.112E-12	 3.669E+05	 2.005E-10	-6.060E-10	 8.448E+00	 4.288E-01
         6.5000	 0.000E+00	 1.910E+01	 7.339E+05	 0.000E+00	 0.000E+00	 0.000E+00	 8.700E+00	-1.048E-14	 1.984E-15	 1.932E+05	 3.453E-12	-3.096E-12	 3.669E+05	 3.445E-11	-2.036E-11	 8.448E+00	 4.288E-01
         6.5500	 0.000E+00	 1.910E+01	 7.339E+05	 0.000E+00	 0.000E+00	 0.000E+00	 8.700E+00	-4.583E-16	 6.906E-15	 1.932E+05	 1.602E-12	-5.692E-12	 3.669E+05	-7.328E-10	 1.116E-09	 8.448E+00	 4.288E-01
         6.6000	 0.000E+00	 1.910E+01	 7.339E+05	 0.000E+00	 0.000E+00	 0.000E+00	 8.700E+00	-9.706E-16	 3.501E-15	 1.932E+05	 8.802E-13	 1.656E-12	 3.669E+05	-9.562E-11	-5.407E-10	 8.448E+00	 4.288E-01
         6.6500	 0.000E+00	 1.910E+01	 7.339E+05	 0.000E+00	 0.000E+00	 0.000E+00	 8.700E+00	-5.622E-15	 2.047E-15	 1.932E+05	 1.528E-12	-1.683E-12	 3.669E+05	-2.739E-10	 3.017E-10	 8.448E+00	 4.288E-01
         6.7000	 0.000E+00	 1.910E+01	 7.339E+05	 0.000E+00	 0.000E+00	 0.000E+00	 8.700E+00	 2.358E-15	 7.118E-15	 1.932E+05	 2.417E-13	-4.913E-12	 3.669E+05	-9.077E-10	 5.232E-11	 8.448E+00	 4.288E-01
         6.7500	 0.000E+00	 1.910E+01	 7.339E+05	 0.000E+00	 0.000E+00	 0.000E+00	 8.700E+00	-3.891E-15	 1.088E-15	 1.932E+05	-6.320E-13	-2.494E-12	 3.669E+05	 1.238E-09	 1.956E-10	 8.448E+00	 4.288E-01
         6.8000	 0.000E+00	 1.910E+01	 7.339E+05	 0.000E+00	 0.000E+00	 0.000E+00	 8.700E+00	-4.696E-15	-8.105E-16	 1.932E+05	-1.016E-12	 2.692E-14	 3.669E+05	 7.314E-10	 8.479E-11	 8.448E+00	 4.288E-01
         6.8500	 0.000E+00	 1.910E+01	 7.339E+05	 0.000E+00	 0.000E+00	 0.000E+00	 8.700E+00	 2.275E-16	 5.247E-15	 1.932E+05	 7.522E-13	-2.146E-12	 3.669E+05	-8.132E-10	 2.084E-10	 8.448E+00	 4.288E-01
         6.9000	 0.000E+00	 1.910E+01	 7.339E+05	 0.000E+00	 0.000E+00	 0.000E+00	 8.700E+00	-1.067E-15	 6.192E-15	 1.932E+05	 1.982E-12	-4.567E-13	 3.669E+05	 4.526E-10	 1.094E-10	 8.448E+00	 4.288E-01
         6.9500	 0.000E+00	 1.910E+01	 7.339E+05	 0.000E+00	 0.000E+00	 0.000E+00	 8.700E+00	 2.389E-15	 1.033E-15	 1.932E+05	 1.150E-12	-1.678E-12	 3.669E+05	 7.436E-10	 5.727E-10	 8.448E+00	 4.288E-01
         7.0000	 0.000E+00	 1.910E+01	 7.339E+05	 0.000E+00	 0.000E+00	 0.000E+00	 8.700E+00	 3.607E-16	 1.547E-15	 1.932E+05	 4.022E-12	 1.970E-12	 3.669E+05	 2.413E-10	-2.240E-10	 8.448E+00	 4.288E-01
         7.0500	 0.000E+00	 1.910E+01	 7.339E+05	 0.000E+00	 0.000E+00	 0.000E+00	 8.700E+00	-1.338E-15	 9.218E-16	 1.932E+05	-1.250E-12	-5.389E-12	 3.669E+05	 9.441E-10	 1.739E-10	 8.448E+00	 4.288E-01
         7.1000	 0.000E+00	 1.910E+01	 7.339E+05	 0.000E+00	 0.000E+00	 0.000E+00	 8.700E+00	-6.190E-15	 2.711E-15	 1.932E+05	 1.949E-12	-2.164E-12	 3.669E+05	-4.611E-10	 7.836E-10	 8.448E+00	 4.288E-01
         7.1500	 0.000E+00	 1.910E+01	 7.339E+05	 0.000E+00	 0.000E+00	 0.000E+00	 8.700E+00	-3.033E-15	 4.279E-15	 1.932E+05	 2.635E-12	-7.089E-13	 3.669E+05	-2.291E-10	-1.795E-10	 8.448E+00	 4.288E-01
         7.2000	 0.000E+00	 1.910E+01	 7.339E+05	 0.000E+00	 0.000E+00	 0.000E+00	 8.700E+00	 9.938E-16	 3.795E-15	 1.932E+05	 2.015E-12	-1.738E-12	 3.669E+05	 1.622E-10	-3.106E-10	 8.448E+00	 4.288E-01