
Predictions were generated on 30-Jul-2019 at 14:05:40 using AeroDyn_Interface_Subs
 AeroDyn


     Time           	RtSkew    	RtSpeed   	RtAeroPwr 	B1Pitch   	B2Pitch   	B2Pitch   	RtVAvgxh  	RtVAvgyh  	RtVAvgzh  	RTAeroFxh 	RTAeroFyh 	RTAeroFzh 	RTAeroMxh 	RTAeroMyh 	RTAeroMzh 	RtTSR     	RtAeroCp  
      (s)           	(deg)     	(rpm)     	(W)       	(deg)     	(deg)     	(deg)     	(m/s)     	(m/s)     	(m/s)     	(N)       	(N)       	(N)       	(N m)     	(N m)     	(N m)     	(-)       	(-)       
         0.0000	 0.000E+00	 1.590E+01	 8.007E+05	 0.000E+00	 0.000E+00	 0.000E+00	 8.700E+00	 1.345E-16	 4.038E-15	 1.478E+05	 3.015E+03	 2.690E+03	 4.809E+05	 6.837E+06	-7.681E+06	 1.876E+01	 6.578E-02
         0.0200	 0.000E+00	 1.590E+01	 1.900E+04	 0.000E+00	 0.000E+00	 0.000E+00	 8.700E+00	-1.001E-15	 3.837E-15	 1.322E+05	 3.207E+03	-2.976E+03	 1.141E+04	 5.812E+06	-6.966E+06	 1.864E+01	 1.581E-03
         0.0400	 0.000E+00	 1.590E+01	 2.284E+04	 0.000E+00	 0.000E+00	 0.000E+00	 8.700E+00	-4.519E-15	 1.013E-15	 1.323E+05	 3.204E+03	-2.959E+03	 1.372E+04	 5.578E+06	-7.172E+06	 1.851E+01	 1.926E-03
         0.0600	 0.000E+00	 1.590E+01	 2.621E+04	 0.000E+00	 0.000E+00	 0.000E+00	 8.700E+00	-4.495E-15	 3.695E-15	 1.322E+05	 3.206E+03	-2.946E+03	 1.574E+04	 5.333E+06	-7.366E+06	 1.839E+01	 2.241E-03
         0.0800	 0.000E+00	 1.590E+01	 3.061E+04	 0.000E+00	 0.000E+00	 0.000E+00	 8.700E+00	 2.596E-17	 2.256E-15	 1.323E+05	 3.207E+03	-2.934E+03	 1.839E+04	 5.085E+06	-7.557E+06	 1.825E+01	 2.656E-03
         0.1000	 0.000E+00	 1.590E+01	 3.489E+04	 0.000E+00	 0.000E+00	 0.000E+00	 8.700E+00	-5.033E-15	 3.578E-15	 1.323E+05	 3.212E+03	-2.924E+03	 2.095E+04	 4.826E+06	-7.733E+06	 1.812E+01	 3.073E-03
         0.1200	 0.000E+00	 1.590E+01	 3.973E+04	 0.000E+00	 0.000E+00	 0.000E+00	 8.700E+00	-1.547E-15	 2.229E-15	 1.323E+05	 3.217E+03	-2.918E+03	 2.386E+04	 4.564E+06	-7.902E+06	 1.798E+01	 3.554E-03
         0.1400	 0.000E+00	 1.590E+01	 4.522E+04	 0.000E+00	 0.000E+00	 0.000E+00	 8.700E+00	-2.966E-15	 3.553E-15	 1.323E+05	 3.223E+03	-2.911E+03	 2.716E+04	 4.296E+06	-8.065E+06	 1.787E+01	 4.093E-03
         0.1600	 0.000E+00	 1.590E+01	 5.213E+04	 0.000E+00	 0.000E+00	 0.000E+00	 8.700E+00	-1.041E-15	 7.593E-16	 1.325E+05	 3.217E+03	-2.908E+03	 3.131E+04	 4.034E+06	-8.228E+06	 1.802E+01	 4.643E-03
         0.1800	 0.000E+00	 1.590E+01	 5.710E+04	 0.000E+00	 0.000E+00	 0.000E+00	 8.700E+00	-3.003E-15	-5.830E-16	 1.324E+05	 3.239E+03	-2.905E+03	 3.430E+04	 3.744E+06	-8.361E+06	 1.815E+01	 5.008E-03
         0.2000	 0.000E+00	 1.590E+01	 6.310E+04	 0.000E+00	 0.000E+00	 0.000E+00	 8.700E+00	-1.014E-15	 1.732E-15	 1.324E+05	 3.249E+03	-2.908E+03	 3.790E+04	 3.459E+06	-8.490E+06	 1.829E+01	 5.452E-03
         0.2200	 0.000E+00	 1.590E+01	 7.014E+04	 0.000E+00	 0.000E+00	 0.000E+00	 8.700E+00	-8.240E-17	-4.189E-16	 1.324E+05	 3.263E+03	-2.908E+03	 4.213E+04	 3.170E+06	-8.614E+06	 1.842E+01	 5.975E-03
         0.2400	 0.000E+00	 1.590E+01	 7.771E+04	 0.000E+00	 0.000E+00	 0.000E+00	 8.700E+00	 1.016E-16	 3.790E-15	 1.325E+05	 3.268E+03	-2.914E+03	 4.667E+04	 2.883E+06	-8.732E+06	 1.855E+01	 6.529E-03
         0.2600	 0.000E+00	 1.590E+01	 8.488E+04	 0.000E+00	 0.000E+00	 0.000E+00	 8.700E+00	-2.236E-16	 8.923E-16	 1.324E+05	 3.289E+03	-2.920E+03	 5.098E+04	 2.582E+06	-8.830E+06	 1.867E+01	 7.037E-03
         0.2800	 0.000E+00	 1.590E+01	 9.409E+04	 0.000E+00	 0.000E+00	 0.000E+00	 8.700E+00	-2.778E-16	 9.452E-16	 1.326E+05	 3.295E+03	-2.925E+03	 5.651E+04	 2.291E+06	-8.936E+06	 1.879E+01	 7.703E-03
         0.3000	 0.000E+00	 1.590E+01	 1.019E+05	 0.000E+00	 0.000E+00	 0.000E+00	 8.700E+00	-2.911E-16	 3.334E-16	 1.325E+05	 3.309E+03	-2.938E+03	 6.120E+04	 1.986E+06	-9.016E+06	 1.890E+01	 8.242E-03
         0.3200	 0.000E+00	 1.590E+01	 1.107E+05	 0.000E+00	 0.000E+00	 0.000E+00	 8.700E+00	-8.461E-16	 5.325E-15	 1.326E+05	 3.324E+03	-2.950E+03	 6.651E+04	 1.682E+06	-9.092E+06	 1.901E+01	 8.854E-03
         0.3400	 0.000E+00	 1.590E+01	 1.200E+05	 0.000E+00	 0.000E+00	 0.000E+00	 8.700E+00	 2.118E-16	 1.205E-15	 1.325E+05	 3.347E+03	-2.961E+03	 7.205E+04	 1.371E+06	-9.151E+06	 1.912E+01	 9.486E-03
         0.3600	 0.000E+00	 1.590E+01	 1.291E+05	 0.000E+00	 0.000E+00	 0.000E+00	 8.700E+00	-1.428E-15	 1.911E-15	 1.324E+05	 3.372E+03	-2.976E+03	 7.753E+04	 1.057E+06	-9.196E+06	 1.922E+01	 1.010E-02
         0.3800	 0.000E+00	 1.590E+01	 1.400E+05	 0.000E+00	 0.000E+00	 0.000E+00	 8.700E+00	 1.373E-15	 3.384E-16	 1.326E+05	 3.378E+03	-2.992E+03	 8.407E+04	 7.530E+05	-9.252E+06	 1.932E+01	 1.084E-02
         0.4000	 0.000E+00	 1.590E+01	 1.506E+05	 0.000E+00	 0.000E+00	 0.000E+00	 8.700E+00	 2.472E-15	 4.292E-15	 1.326E+05	 3.402E+03	-3.007E+03	 9.044E+04	 4.381E+05	-9.281E+06	 1.941E+01	 1.156E-02
         0.4200	 0.000E+00	 1.590E+01	 1.614E+05	 0.000E+00	 0.000E+00	 0.000E+00	 8.700E+00	-2.900E-15	 1.672E-15	 1.326E+05	 3.421E+03	-3.027E+03	 9.691E+04	 1.246E+05	-9.302E+06	 1.949E+01	 1.227E-02
         0.4400	 0.000E+00	 1.590E+01	 1.732E+05	 0.000E+00	 0.000E+00	 0.000E+00	 8.700E+00	-1.292E-15	 1.822E-15	 1.327E+05	 3.435E+03	-3.046E+03	 1.040E+05	-1.870E+05	-9.321E+06	 1.958E+01	 1.307E-02
         0.4600	 0.000E+00	 1.590E+01	 1.854E+05	 0.000E+00	 0.000E+00	 0.000E+00	 8.700E+00	-1.060E-15	 1.690E-15	 1.327E+05	 3.459E+03	-3.063E+03	 1.114E+05	-5.039E+05	-9.320E+06	 1.965E+01	 1.388E-02
         0.4800	 0.000E+00	 1.590E+01	 1.983E+05	 0.000E+00	 0.000E+00	 0.000E+00	 8.700E+00	-2.418E-15	-3.392E-17	 1.329E+05	 3.465E+03	-3.085E+03	 1.191E+05	-8.138E+05	-9.325E+06	 1.973E+01	 1.473E-02
         0.5000	 0.000E+00	 1.590E+01	 2.109E+05	 0.000E+00	 0.000E+00	 0.000E+00	 8.700E+00	-9.773E-16	 1.364E-15	 1.327E+05	 3.503E+03	-3.104E+03	 1.266E+05	-1.134E+06	-9.289E+06	 1.979E+01	 1.556E-02
         0.5200	 0.000E+00	 1.590E+01	 2.242E+05	 0.000E+00	 0.000E+00	 0.000E+00	 8.700E+00	 7.926E-16	 3.033E-15	 1.327E+05	 3.526E+03	-3.126E+03	 1.347E+05	-1.449E+06	-9.257E+06	 1.986E+01	 1.644E-02
         0.5400	 0.000E+00	 1.590E+01	 2.388E+05	 0.000E+00	 0.000E+00	 0.000E+00	 8.700E+00	-2.209E-15	 3.912E-15	 1.328E+05	 3.544E+03	-3.146E+03	 1.434E+05	-1.759E+06	-9.224E+06	 1.991E+01	 1.741E-02
         0.5600	 0.000E+00	 1.590E+01	 2.531E+05	 0.000E+00	 0.000E+00	 0.000E+00	 8.700E+00	-3.436E-15	 2.028E-15	 1.329E+05	 3.564E+03	-3.170E+03	 1.520E+05	-2.070E+06	-9.173E+06	 1.997E+01	 1.835E-02
         0.5800	 0.000E+00	 1.590E+01	 2.679E+05	 0.000E+00	 0.000E+00	 0.000E+00	 8.700E+00	-4.829E-16	 3.583E-15	 1.330E+05	 3.575E+03	-3.195E+03	 1.609E+05	-2.378E+06	-9.122E+06	 2.002E+01	 1.932E-02
         0.6000	 0.000E+00	 1.590E+01	 2.835E+05	 0.000E+00	 0.000E+00	 0.000E+00	 8.700E+00	-1.854E-17	 2.748E-15	 1.329E+05	 3.605E+03	-3.216E+03	 1.703E+05	-2.687E+06	-9.042E+06	 2.006E+01	 2.037E-02
         0.6200	 0.000E+00	 1.590E+01	 2.996E+05	 0.000E+00	 0.000E+00	 0.000E+00	 8.700E+00	-2.210E-15	 1.405E-15	 1.330E+05	 3.622E+03	-3.238E+03	 1.799E+05	-2.991E+06	-8.968E+06	 2.010E+01	 2.144E-02
         0.6400	 0.000E+00	 1.590E+01	 3.156E+05	 0.000E+00	 0.000E+00	 0.000E+00	 8.700E+00	-9.260E-16	 2.734E-15	 1.329E+05	 3.650E+03	-3.263E+03	 1.895E+05	-3.294E+06	-8.866E+06	 2.013E+01	 2.251E-02
         0.6600	 0.000E+00	 1.590E+01	 3.326E+05	 0.000E+00	 0.000E+00	 0.000E+00	 8.700E+00	-1.152E-15	 3.768E-15	 1.330E+05	 3.665E+03	-3.286E+03	 1.997E+05	-3.593E+06	-8.773E+06	 2.016E+01	 2.365E-02
         0.6800	 0.000E+00	 1.590E+01	 3.501E+05	 0.000E+00	 0.000E+00	 0.000E+00	 8.700E+00	 1.371E-15	 2.104E-15	 1.330E+05	 3.693E+03	-3.308E+03	 2.102E+05	-3.889E+06	-8.657E+06	 2.019E+01	 2.484E-02
         0.7000	 0.000E+00	 1.590E+01	 3.677E+05	 0.000E+00	 0.000E+00	 0.000E+00	 8.700E+00	-4.086E-15	 3.191E-15	 1.331E+05	 3.705E+03	-3.332E+03	 2.208E+05	-4.180E+06	-8.544E+06	 2.020E+01	 2.604E-02
         0.7200	 0.000E+00	 1.590E+01	 3.853E+05	 0.000E+00	 0.000E+00	 0.000E+00	 8.700E+00	-4.805E-15	 2.739E-15	 1.330E+05	 3.735E+03	-3.358E+03	 2.314E+05	-4.466E+06	-8.402E+06	 2.022E+01	 2.725E-02
         0.7400	 0.000E+00	 1.590E+01	 4.035E+05	 0.000E+00	 0.000E+00	 0.000E+00	 8.700E+00	-3.817E-15	 9.879E-16	 1.332E+05	 3.745E+03	-3.383E+03	 2.423E+05	-4.750E+06	-8.271E+06	 2.023E+01	 2.851E-02
         0.7600	 0.000E+00	 1.590E+01	 4.228E+05	 0.000E+00	 0.000E+00	 0.000E+00	 8.700E+00	-2.493E-15	 2.197E-15	 1.331E+05	 3.775E+03	-3.404E+03	 2.539E+05	-5.028E+06	-8.114E+06	 2.023E+01	 2.986E-02
         0.7800	 0.000E+00	 1.590E+01	 4.419E+05	 0.000E+00	 0.000E+00	 0.000E+00	 8.700E+00	-3.268E-15	 1.642E-15	 1.333E+05	 3.786E+03	-3.427E+03	 2.654E+05	-5.302E+06	-7.967E+06	 2.023E+01	 3.121E-02
         0.8000	 0.000E+00	 1.590E+01	 4.615E+05	 0.000E+00	 0.000E+00	 0.000E+00	 8.700E+00	-2.376E-15	 3.205E-15	 1.330E+05	 3.819E+03	-3.451E+03	 2.772E+05	-5.567E+06	-7.785E+06	 2.022E+01	 3.261E-02
         0.8200	 0.000E+00	 1.590E+01	 4.818E+05	 0.000E+00	 0.000E+00	 0.000E+00	 8.700E+00	-1.534E-15	 3.127E-15	 1.331E+05	 3.836E+03	-3.472E+03	 2.894E+05	-5.831E+06	-7.615E+06	 2.021E+01	 3.409E-02
         0.8400	 0.000E+00	 1.590E+01	 5.015E+05	 0.000E+00	 0.000E+00	 0.000E+00	 8.700E+00	 2.101E-15	 4.092E-15	 1.331E+05	 3.856E+03	-3.496E+03	 3.012E+05	-6.085E+06	-7.425E+06	 2.020E+01	 3.554E-02
         0.8600	 0.000E+00	 1.590E+01	 5.222E+05	 0.000E+00	 0.000E+00	 0.000E+00	 8.700E+00	-2.336E-15	 3.535E-15	 1.330E+05	 3.881E+03	-3.518E+03	 3.136E+05	-6.334E+06	-7.228E+06	 2.018E+01	 3.708E-02
         0.8800	 0.000E+00	 1.590E+01	 5.425E+05	 0.000E+00	 0.000E+00	 0.000E+00	 8.700E+00	-2.286E-15	 2.628E-15	 1.331E+05	 3.893E+03	-3.542E+03	 3.258E+05	-6.576E+06	-7.028E+06	 2.015E+01	 3.862E-02
         0.9000	 0.000E+00	 1.590E+01	 5.636E+05	 0.000E+00	 0.000E+00	 0.000E+00	 8.700E+00	-1.178E-15	-1.853E-16	 1.331E+05	 3.917E+03	-3.564E+03	 3.385E+05	-6.811E+06	-6.816E+06	 2.012E+01	 4.024E-02
         0.9200	 0.000E+00	 1.590E+01	 5.839E+05	 0.000E+00	 0.000E+00	 0.000E+00	 8.700E+00	 1.585E-15	 3.074E-15	 1.332E+05	 3.921E+03	-3.587E+03	 3.507E+05	-7.043E+06	-6.607E+06	 2.008E+01	 4.184E-02
         0.9400	 0.000E+00	 1.590E+01	 6.056E+05	 0.000E+00	 0.000E+00	 0.000E+00	 8.700E+00	 7.114E-16	 3.047E-15	 1.331E+05	 3.951E+03	-3.608E+03	 3.637E+05	-7.262E+06	-6.375E+06	 2.004E+01	 4.357E-02
         0.9600	 0.000E+00	 1.590E+01	 6.274E+05	 0.000E+00	 0.000E+00	 0.000E+00	 8.700E+00	-5.439E-15	 4.659E-15	 1.330E+05	 3.975E+03	-3.629E+03	 3.768E+05	-7.473E+06	-6.139E+06	 2.000E+01	 4.535E-02
         0.9800	 0.000E+00	 1.590E+01	 6.484E+05	 0.000E+00	 0.000E+00	 0.000E+00	 8.700E+00	-8.643E-16	 3.440E-15	 1.330E+05	 3.990E+03	-3.653E+03	 3.894E+05	-7.678E+06	-5.899E+06	 1.995E+01	 4.710E-02
         1.0000	 0.000E+00	 1.590E+01	 6.696E+05	 0.000E+00	 0.000E+00	 0.000E+00	 8.700E+00	-2.338E-15	 3.671E-15	 1.331E+05	 3.998E+03	-3.674E+03	 4.021E+05	-7.879E+06	-5.659E+06	 1.989E+01	 4.891E-02
         1.0200	 0.000E+00	 1.590E+01	 6.911E+05	 0.000E+00	 0.000E+00	 0.000E+00	 8.700E+00	-1.214E-15	-8.539E-17	 1.330E+05	 4.020E+03	-3.696E+03	 4.151E+05	-8.063E+06	-5.400E+06	 1.983E+01	 5.079E-02
         1.0400	 0.000E+00	 1.590E+01	 7.129E+05	 0.000E+00	 0.000E+00	 0.000E+00	 8.700E+00	 1.924E-15	 7.576E-16	 1.330E+05	 4.038E+03	-3.716E+03	 4.282E+05	-8.242E+06	-5.141E+06	 1.977E+01	 5.274E-02
         1.0600	 0.000E+00	 1.590E+01	 7.344E+05	 0.000E+00	 0.000E+00	 0.000E+00	 8.700E+00	-9.703E-16	 1.369E-15	 1.329E+05	 4.057E+03	-3.738E+03	 4.411E+05	-8.410E+06	-4.874E+06	 1.970E+01	 5.471E-02
         1.0800	 0.000E+00	 1.590E+01	 7.560E+05	 0.000E+00	 0.000E+00	 0.000E+00	 8.700E+00	-5.491E-16	 3.751E-15	 1.330E+05	 4.069E+03	-3.756E+03	 4.541E+05	-8.577E+06	-4.607E+06	 1.962E+01	 5.675E-02
         1.1000	 0.000E+00	 1.590E+01	 7.773E+05	 0.000E+00	 0.000E+00	 0.000E+00	 8.700E+00	-1.065E-15	 1.050E-15	 1.330E+05	 4.081E+03	-3.777E+03	 4.668E+05	-8.729E+06	-4.333E+06	 1.955E+01	 5.882E-02
         1.1200	 0.000E+00	 1.590E+01	 7.990E+05	 0.000E+00	 0.000E+00	 0.000E+00	 8.700E+00	 7.090E-17	 8.587E-16	 1.329E+05	 4.099E+03	-3.795E+03	 4.799E+05	-8.872E+06	-4.052E+06	 1.946E+01	 6.098E-02
         1.1400	 0.000E+00	 1.590E+01	 8.197E+05	 0.000E+00	 0.000E+00	 0.000E+00	 8.700E+00	-2.442E-15	 2.112E-15	 1.330E+05	 4.106E+03	-3.815E+03	 4.923E+05	-9.010E+06	-3.770E+06	 1.937E+01	 6.314E-02
         1.1600	 0.000E+00	 1.590E+01	 8.408E+05	 0.000E+00	 0.000E+00	 0.000E+00	 8.700E+00	-2.944E-15	-3.453E-15	 1.329E+05	 4.122E+03	-3.835E+03	 5.050E+05	-9.131E+06	-3.478E+06	 1.928E+01	 6.539E-02
         1.1800	 0.000E+00	 1.590E+01	 8.617E+05	 0.000E+00	 0.000E+00	 0.000E+00	 8.700E+00	 8.344E-16	-2.268E-16	 1.328E+05	 4.137E+03	-3.855E+03	 5.175E+05	-9.243E+06	-3.183E+06	 1.918E+01	 6.769E-02
         1.2000	 0.000E+00	 1.590E+01	 8.820E+05	 0.000E+00	 0.000E+00	 0.000E+00	 8.700E+00	-2.492E-15	 2.481E-15	 1.328E+05	 4.146E+03	-3.875E+03	 5.297E+05	-9.347E+06	-2.887E+06	 1.908E+01	 7.003E-02
         1.2200	 0.000E+00	 1.590E+01	 9.020E+05	 0.000E+00	 0.000E+00	 0.000E+00	 8.700E+00	-5.614E-15	 6.488E-16	 1.329E+05	 4.154E+03	-3.894E+03	 5.417E+05	-9.444E+06	-2.588E+06	 1.897E+01	 7.243E-02
         1.2400	 0.000E+00	 1.590E+01	 9.211E+05	 0.000E+00	 0.000E+00	 0.000E+00	 8.700E+00	 3.289E-16	 2.227E-15	 1.331E+05	 4.152E+03	-3.913E+03	 5.532E+05	-9.537E+06	-2.289E+06	 1.886E+01	 7.485E-02
         1.2600	 0.000E+00	 1.590E+01	 9.418E+05	 0.000E+00	 0.000E+00	 0.000E+00	 8.700E+00	-5.141E-16	 1.474E-15	 1.328E+05	 4.175E+03	-3.930E+03	 5.656E+05	-9.603E+06	-1.980E+06	 1.875E+01	 7.748E-02
         1.2800	 0.000E+00	 1.590E+01	 9.615E+05	 0.000E+00	 0.000E+00	 0.000E+00	 8.700E+00	-3.776E-15	 2.717E-15	 1.328E+05	 4.185E+03	-3.945E+03	 5.775E+05	-9.668E+06	-1.673E+06	 1.863E+01	 8.012E-02
         1.3000	 0.000E+00	 1.590E+01	 9.804E+05	 0.000E+00	 0.000E+00	 0.000E+00	 8.700E+00	-4.837E-15	 4.365E-15	 1.327E+05	 4.194E+03	-3.964E+03	 5.888E+05	-9.720E+06	-1.363E+06	 1.850E+01	 8.280E-02
         1.3200	 0.000E+00	 1.590E+01	 9.993E+05	 0.000E+00	 0.000E+00	 0.000E+00	 8.700E+00	-2.441E-15	 6.612E-16	 1.326E+05	 4.206E+03	-3.981E+03	 6.002E+05	-9.760E+06	-1.051E+06	 1.837E+01	 8.558E-02
         1.3400	 0.000E+00	 1.590E+01	 1.017E+06	 0.000E+00	 0.000E+00	 0.000E+00	 8.700E+00	 2.439E-15	 4.132E-15	 1.326E+05	 4.213E+03	-3.998E+03	 6.111E+05	-9.793E+06	-7.390E+05	 1.824E+01	 8.841E-02
         1.3600	 0.000E+00	 1.590E+01	 1.035E+06	 0.000E+00	 0.000E+00	 0.000E+00	 8.700E+00	-1.657E-15	 9.146E-16	 1.326E+05	 4.220E+03	-4.014E+03	 6.217E+05	-9.815E+06	-4.261E+05	 1.810E+01	 9.132E-02
         1.3800	 0.000E+00	 1.590E+01	 1.052E+06	 0.000E+00	 0.000E+00	 0.000E+00	 8.700E+00	 2.073E-15	 3.797E-15	 1.326E+05	 4.223E+03	-4.031E+03	 6.320E+05	-9.826E+06	-1.121E+05	 1.796E+01	 9.429E-02
         1.4000	 0.000E+00	 1.590E+01	 1.068E+06	 0.000E+00	 0.000E+00	 0.000E+00	 8.700E+00	-2.744E-15	 1.796E-15	 1.327E+05	 4.220E+03	-4.047E+03	 6.417E+05	-9.836E+06	 2.007E+05	 1.789E+01	 9.654E-02
         1.4200	 0.000E+00	 1.590E+01	 1.085E+06	 0.000E+00	 0.000E+00	 0.000E+00	 8.700E+00	-2.712E-15	 3.564E-15	 1.326E+05	 4.227E+03	-4.065E+03	 6.515E+05	-9.823E+06	 5.147E+05	 1.803E+01	 9.645E-02
         1.4400	 0.000E+00	 1.590E+01	 1.100E+06	 0.000E+00	 0.000E+00	 0.000E+00	 8.700E+00	 4.895E-16	 4.557E-15	 1.327E+05	 4.227E+03	-4.080E+03	 6.608E+05	-9.808E+06	 8.277E+05	 1.817E+01	 9.633E-02
         1.4600	 0.000E+00	 1.590E+01	 1.116E+06	 0.000E+00	 0.000E+00	 0.000E+00	 8.700E+00	-3.303E-16	 1.522E-15	 1.326E+05	 4.232E+03	-4.094E+03	 6.700E+05	-9.777E+06	 1.140E+06	 1.830E+01	 9.624E-02
         1.4800	 0.000E+00	 1.590E+01	 1.130E+06	 0.000E+00	 0.000E+00	 0.000E+00	 8.700E+00	-4.808E-15	 2.227E-15	 1.326E+05	 4.231E+03	-4.110E+03	 6.785E+05	-9.736E+06	 1.452E+06	 1.844E+01	 9.609E-02
         1.5000	 0.000E+00	 1.590E+01	 1.144E+06	 0.000E+00	 0.000E+00	 0.000E+00	 8.700E+00	-4.172E-15	-1.142E-16	 1.327E+05	 4.230E+03	-4.125E+03	 6.868E+05	-9.688E+06	 1.762E+06	 1.856E+01	 9.594E-02
         1.5200	 0.000E+00	 1.590E+01	 1.157E+06	 0.000E+00	 0.000E+00	 0.000E+00	 8.700E+00	-3.506E-15	 1.042E-15	 1.326E+05	 4.231E+03	-4.141E+03	 6.948E+05	-9.624E+06	 2.069E+06	 1.868E+01	 9.578E-02
         1.5400	 0.000E+00	 1.590E+01	 1.169E+06	 0.000E+00	 0.000E+00	 0.000E+00	 8.700E+00	-1.009E-17	 5.938E-15	 1.328E+05	 4.220E+03	-4.156E+03	 7.020E+05	-9.560E+06	 2.378E+06	 1.880E+01	 9.556E-02
         1.5600	 0.000E+00	 1.590E+01	 1.181E+06	 0.000E+00	 0.000E+00	 0.000E+00	 8.700E+00	-1.965E-15	 6.558E-16	 1.327E+05	 4.222E+03	-4.171E+03	 7.092E+05	-9.475E+06	 2.680E+06	 1.892E+01	 9.540E-02
         1.5800	 0.000E+00	 1.590E+01	 1.192E+06	 0.000E+00	 0.000E+00	 0.000E+00	 8.700E+00	 6.075E-16	 3.373E-15	 1.327E+05	 4.218E+03	-4.185E+03	 7.160E+05	-9.387E+06	 2.981E+06	 1.903E+01	 9.520E-02
         1.6000	 0.000E+00	 1.590E+01	 1.203E+06	 0.000E+00	 0.000E+00	 0.000E+00	 8.700E+00	-2.898E-15	 4.792E-15	 1.327E+05	 4.219E+03	-4.197E+03	 7.226E+05	-9.286E+06	 3.278E+06	 1.913E+01	 9.504E-02
         1.6200	 0.000E+00	 1.590E+01	 1.213E+06	 0.000E+00	 0.000E+00	 0.000E+00	 8.700E+00	 8.584E-16	 3.262E-15	 1.326E+05	 4.220E+03	-4.212E+03	 7.287E+05	-9.170E+06	 3.569E+06	 1.923E+01	 9.485E-02
         1.6400	 0.000E+00	 1.590E+01	 1.222E+06	 0.000E+00	 0.000E+00	 0.000E+00	 8.700E+00	-3.403E-15	 4.046E-15	 1.327E+05	 4.206E+03	-4.227E+03	 7.339E+05	-9.053E+06	 3.863E+06	 1.933E+01	 9.457E-02
         1.6600	 0.000E+00	 1.590E+01	 1.231E+06	 0.000E+00	 0.000E+00	 0.000E+00	 8.700E+00	-3.687E-15	 3.266E-15	 1.326E+05	 4.207E+03	-4.240E+03	 7.393E+05	-8.920E+06	 4.147E+06	 1.942E+01	 9.438E-02
         1.6800	 0.000E+00	 1.590E+01	 1.238E+06	 0.000E+00	 0.000E+00	 0.000E+00	 8.700E+00	-2.108E-15	 4.737E-15	 1.329E+05	 4.187E+03	-4.253E+03	 7.435E+05	-8.788E+06	 4.437E+06	 1.950E+01	 9.408E-02
         1.7000	 0.000E+00	 1.590E+01	 1.246E+06	 0.000E+00	 0.000E+00	 0.000E+00	 8.700E+00	-3.422E-15	 5.399E-15	 1.327E+05	 4.189E+03	-4.267E+03	 7.481E+05	-8.634E+06	 4.709E+06	 1.958E+01	 9.388E-02
         1.7200	 0.000E+00	 1.590E+01	 1.252E+06	 0.000E+00	 0.000E+00	 0.000E+00	 8.700E+00	-1.351E-15	 1.961E-15	 1.327E+05	 4.181E+03	-4.280E+03	 7.519E+05	-8.477E+06	 4.981E+06	 1.966E+01	 9.362E-02
         1.7400	 0.000E+00	 1.590E+01	 1.258E+06	 0.000E+00	 0.000E+00	 0.000E+00	 8.700E+00	-2.238E-16	 3.795E-16	 1.327E+05	 4.175E+03	-4.294E+03	 7.554E+05	-8.308E+06	 5.246E+06	 1.973E+01	 9.336E-02
         1.7600	 0.000E+00	 1.590E+01	 1.262E+06	 0.000E+00	 0.000E+00	 0.000E+00	 8.700E+00	-2.547E-15	 3.931E-15	 1.327E+05	 4.163E+03	-4.304E+03	 7.582E+05	-8.135E+06	 5.510E+06	 1.980E+01	 9.308E-02
         1.7800	 0.000E+00	 1.590E+01	 1.266E+06	 0.000E+00	 0.000E+00	 0.000E+00	 8.700E+00	-1.203E-15	 5.288E-16	 1.329E+05	 4.142E+03	-4.321E+03	 7.605E+05	-7.954E+06	 5.773E+06	 1.986E+01	 9.277E-02
         1.8000	 0.000E+00	 1.590E+01	 1.270E+06	 0.000E+00	 0.000E+00	 0.000E+00	 8.700E+00	 2.738E-15	 1.848E-15	 1.327E+05	 4.145E+03	-4.333E+03	 7.630E+05	-7.755E+06	 6.013E+06	 1.992E+01	 9.254E-02
         1.8200	 0.000E+00	 1.590E+01	 1.273E+06	 0.000E+00	 0.000E+00	 0.000E+00	 8.700E+00	-2.483E-15	 3.160E-15	 1.326E+05	 4.141E+03	-4.346E+03	 7.648E+05	-7.549E+06	 6.250E+06	 1.997E+01	 9.227E-02
         1.8400	 0.000E+00	 1.590E+01	 1.275E+06	 0.000E+00	 0.000E+00	 0.000E+00	 8.700E+00	 1.217E-15	 2.425E-15	 1.327E+05	 4.126E+03	-4.355E+03	 7.659E+05	-7.344E+06	 6.491E+06	 2.002E+01	 9.196E-02
         1.8600	 0.000E+00	 1.590E+01	 1.277E+06	 0.000E+00	 0.000E+00	 0.000E+00	 8.700E+00	 1.271E-15	 4.612E-15	 1.327E+05	 4.116E+03	-4.369E+03	 7.667E+05	-7.126E+06	 6.719E+06	 2.006E+01	 9.166E-02
         1.8800	 0.000E+00	 1.590E+01	 1.277E+06	 0.000E+00	 0.000E+00	 0.000E+00	 8.700E+00	-4.780E-15	 4.425E-15	 1.326E+05	 4.106E+03	-4.380E+03	 7.671E+05	-6.900E+06	 6.938E+06	 2.010E+01	 9.137E-02
         1.9000	 0.000E+00	 1.590E+01	 1.277E+06	 0.000E+00	 0.000E+00	 0.000E+00	 8.700E+00	-1.593E-15	 2.739E-15	 1.326E+05	 4.095E+03	-4.392E+03	 7.671E+05	-6.668E+06	 7.151E+06	 2.014E+01	 9.106E-02
         1.9200	 0.000E+00	 1.590E+01	 1.276E+06	 0.000E+00	 0.000E+00	 0.000E+00	 8.700E+00	-8.034E-17	 2.245E-15	 1.329E+05	 4.066E+03	-4.404E+03	 7.663E+05	-6.434E+06	 7.372E+06	 2.016E+01	 9.071E-02
         1.9400	 0.000E+00	 1.590E+01	 1.275E+06	 0.000E+00	 0.000E+00	 0.000E+00	 8.700E+00	-2.531E-15	 3.398E-15	 1.326E+05	 4.069E+03	-4.417E+03	 7.657E+05	-6.183E+06	 7.555E+06	 2.019E+01	 9.043E-02
         1.9600	 0.000E+00	 1.590E+01	 1.273E+06	 0.000E+00	 0.000E+00	 0.000E+00	 8.700E+00	-2.538E-15	 1.807E-15	 1.326E+05	 4.055E+03	-4.430E+03	 7.643E+05	-5.930E+06	 7.744E+06	 2.021E+01	 9.010E-02
         1.9800	 0.000E+00	 1.590E+01	 1.270E+06	 0.000E+00	 0.000E+00	 0.000E+00	 8.700E+00	-2.271E-15	 1.851E-15	 1.326E+05	 4.043E+03	-4.438E+03	 7.625E+05	-5.673E+06	 7.926E+06	 2.022E+01	 8.977E-02
         2.0000	 0.000E+00	 1.590E+01	 1.266E+06	 0.000E+00	 0.000E+00	 0.000E+00	 8.700E+00	 6.462E-16	 1.282E-15	 1.327E+05	 4.019E+03	-4.450E+03	 7.603E+05	-5.408E+06	 8.107E+06	 2.023E+01	 8.943E-02
         2.0200	 0.000E+00	 1.590E+01	 1.262E+06	 0.000E+00	 0.000E+00	 0.000E+00	 8.700E+00	-2.239E-15	 2.456E-15	 1.325E+05	 4.017E+03	-4.462E+03	 7.578E+05	-5.137E+06	 8.258E+06	 2.023E+01	 8.911E-02
         2.0400	 0.000E+00	 1.590E+01	 1.257E+06	 0.000E+00	 0.000E+00	 0.000E+00	 8.700E+00	-2.655E-15	 1.950E-15	 1.326E+05	 3.998E+03	-4.471E+03	 7.547E+05	-4.862E+06	 8.419E+06	 2.023E+01	 8.876E-02
         2.0600	 0.000E+00	 1.590E+01	 1.251E+06	 0.000E+00	 0.000E+00	 0.000E+00	 8.700E+00	-4.187E-16	 2.489E-15	 1.325E+05	 3.990E+03	-4.481E+03	 7.513E+05	-4.582E+06	 8.557E+06	 2.022E+01	 8.842E-02
         2.0800	 0.000E+00	 1.590E+01	 1.245E+06	 0.000E+00	 0.000E+00	 0.000E+00	 8.700E+00	-3.124E-15	 2.495E-15	 1.323E+05	 3.982E+03	-4.492E+03	 7.475E+05	-4.297E+06	 8.686E+06	 2.021E+01	 8.807E-02
         2.1000	 0.000E+00	 1.590E+01	 1.237E+06	 0.000E+00	 0.000E+00	 0.000E+00	 8.700E+00	-5.593E-15	 6.321E-16	 1.324E+05	 3.966E+03	-4.500E+03	 7.432E+05	-4.009E+06	 8.814E+06	 2.020E+01	 8.771E-02
         2.1200	 0.000E+00	 1.590E+01	 1.230E+06	 0.000E+00	 0.000E+00	 0.000E+00	 8.700E+00	-1.116E-15	 6.150E-15	 1.323E+05	 3.951E+03	-4.510E+03	 7.385E+05	-3.716E+06	 8.929E+06	 2.017E+01	 8.734E-02
         2.1400	 0.000E+00	 1.590E+01	 1.221E+06	 0.000E+00	 0.000E+00	 0.000E+00	 8.700E+00	 2.008E-15	 3.670E-15	 1.322E+05	 3.941E+03	-4.519E+03	 7.334E+05	-3.420E+06	 9.029E+06	 2.015E+01	 8.696E-02
         2.1600	 0.000E+00	 1.590E+01	 1.212E+06	 0.000E+00	 0.000E+00	 0.000E+00	 8.700E+00	-2.392E-15	 1.270E-15	 1.323E+05	 3.917E+03	-4.527E+03	 7.280E+05	-3.120E+06	 9.136E+06	 2.012E+01	 8.659E-02
         2.1800	 0.000E+00	 1.590E+01	 1.203E+06	 0.000E+00	 0.000E+00	 0.000E+00	 8.700E+00	-1.714E-15	 2.109E-15	 1.322E+05	 3.906E+03	-4.537E+03	 7.222E+05	-2.816E+06	 9.216E+06	 2.008E+01	 8.621E-02
         2.2000	 0.000E+00	 1.590E+01	 1.192E+06	 0.000E+00	 0.000E+00	 0.000E+00	 8.700E+00	-3.488E-15	 1.670E-15	 1.321E+05	 3.894E+03	-4.544E+03	 7.159E+05	-2.512E+06	 9.289E+06	 2.004E+01	 8.581E-02
         2.2200	 0.000E+00	 1.590E+01	 1.181E+06	 0.000E+00	 0.000E+00	 0.000E+00	 8.700E+00	-2.521E-15	 5.700E-15	 1.323E+05	 3.869E+03	-4.551E+03	 7.095E+05	-2.203E+06	 9.366E+06	 1.999E+01	 8.542E-02
         2.2400	 0.000E+00	 1.590E+01	 1.170E+06	 0.000E+00	 0.000E+00	 0.000E+00	 8.700E+00	-1.756E-15	 1.257E-15	 1.322E+05	 3.855E+03	-4.558E+03	 7.025E+05	-1.894E+06	 9.420E+06	 1.994E+01	 8.502E-02
         2.2600	 0.000E+00	 1.590E+01	 1.157E+06	 0.000E+00	 0.000E+00	 0.000E+00	 8.700E+00	-3.760E-15	 6.399E-15	 1.320E+05	 3.849E+03	-4.567E+03	 6.951E+05	-1.585E+06	 9.452E+06	 1.989E+01	 8.459E-02
         2.2800	 0.000E+00	 1.590E+01	 1.144E+06	 0.000E+00	 0.000E+00	 0.000E+00	 8.700E+00	-1.809E-15	 5.094E-15	 1.320E+05	 3.833E+03	-4.572E+03	 6.873E+05	-1.274E+06	 9.487E+06	 1.983E+01	 8.415E-02
         2.3000	 0.000E+00	 1.590E+01	 1.131E+06	 0.000E+00	 0.000E+00	 0.000E+00	 8.700E+00	 1.445E-17	 5.439E-16	 1.319E+05	 3.821E+03	-4.578E+03	 6.792E+05	-9.621E+05	 9.508E+06	 1.976E+01	 8.371E-02
         2.3200	 0.000E+00	 1.590E+01	 1.117E+06	 0.000E+00	 0.000E+00	 0.000E+00	 8.700E+00	-1.457E-15	-1.499E-15	 1.319E+05	 3.800E+03	-4.582E+03	 6.709E+05	-6.475E+05	 9.529E+06	 1.969E+01	 8.328E-02
         2.3400	 0.000E+00	 1.590E+01	 1.102E+06	 0.000E+00	 0.000E+00	 0.000E+00	 8.700E+00	-2.489E-15	-4.617E-16	 1.318E+05	 3.791E+03	-4.583E+03	 6.619E+05	-3.362E+05	 9.528E+06	 1.962E+01	 8.279E-02
         2.3600	 0.000E+00	 1.590E+01	 1.087E+06	 0.000E+00	 0.000E+00	 0.000E+00	 8.700E+00	-1.002E-15	 2.303E-15	 1.317E+05	 3.780E+03	-4.590E+03	 6.528E+05	-2.559E+04	 9.514E+06	 1.954E+01	 8.232E-02
         2.3800	 0.000E+00	 1.590E+01	 1.072E+06	 0.000E+00	 0.000E+00	 0.000E+00	 8.700E+00	 1.795E-15	 2.394E-15	 1.318E+05	 3.757E+03	-4.593E+03	 6.436E+05	 2.902E+05	 9.504E+06	 1.945E+01	 8.186E-02
         2.4000	 0.000E+00	 1.590E+01	 1.055E+06	 0.000E+00	 0.000E+00	 0.000E+00	 8.700E+00	-2.048E-15	 3.095E-16	 1.316E+05	 3.748E+03	-4.596E+03	 6.336E+05	 5.981E+05	 9.470E+06	 1.936E+01	 8.134E-02
         2.4200	 0.000E+00	 1.590E+01	 1.038E+06	 0.000E+00	 0.000E+00	 0.000E+00	 8.700E+00	 9.494E-16	-3.285E-16	 1.317E+05	 3.733E+03	-4.595E+03	 6.235E+05	 9.091E+05	 9.435E+06	 1.927E+01	 8.082E-02
         2.4400	 0.000E+00	 1.590E+01	 1.021E+06	 0.000E+00	 0.000E+00	 0.000E+00	 8.700E+00	-6.233E-16	 4.254E-15	 1.316E+05	 3.716E+03	-4.598E+03	 6.133E+05	 1.218E+06	 9.386E+06	 1.917E+01	 8.031E-02
         2.4600	 0.000E+00	 1.590E+01	 1.003E+06	 0.000E+00	 0.000E+00	 0.000E+00	 8.700E+00	-1.224E-15	 2.614E-15	 1.316E+05	 3.702E+03	-4.597E+03	 6.026E+05	 1.525E+06	 9.328E+06	 1.907E+01	 7.977E-02
         2.4800	 0.000E+00	 1.590E+01	 9.849E+05	 0.000E+00	 0.000E+00	 0.000E+00	 8.700E+00	-8.620E-16	 2.740E-15	 1.316E+05	 3.689E+03	-4.595E+03	 5.915E+05	 1.828E+06	 9.259E+06	 1.896E+01	 7.919E-02
         2.5000	 0.000E+00	 1.590E+01	 9.670E+05	 0.000E+00	 0.000E+00	 0.000E+00	 8.700E+00	-3.235E-15	 5.132E-15	 1.318E+05	 3.664E+03	-4.590E+03	 5.808E+05	 2.139E+06	 9.196E+06	 1.885E+01	 7.868E-02
         2.5200	 0.000E+00	 1.590E+01	 9.470E+05	 0.000E+00	 0.000E+00	 0.000E+00	 8.700E+00	-1.289E-15	 2.156E-15	 1.315E+05	 3.662E+03	-4.590E+03	 5.688E+05	 2.429E+06	 9.093E+06	 1.873E+01	 7.801E-02
         2.5400	 0.000E+00	 1.590E+01	 9.272E+05	 0.000E+00	 0.000E+00	 0.000E+00	 8.700E+00	-1.619E-15	 4.633E-15	 1.314E+05	 3.651E+03	-4.587E+03	 5.569E+05	 2.722E+06	 8.992E+06	 1.861E+01	 7.737E-02
         2.5600	 0.000E+00	 1.590E+01	 9.071E+05	 0.000E+00	 0.000E+00	 0.000E+00	 8.700E+00	 1.358E-15	-3.134E-16	 1.315E+05	 3.637E+03	-4.578E+03	 5.448E+05	 3.016E+06	 8.889E+06	 1.849E+01	 7.672E-02
         2.5800	 0.000E+00	 1.590E+01	 8.868E+05	 0.000E+00	 0.000E+00	 0.000E+00	 8.700E+00	-5.644E-15	 1.330E-15	 1.314E+05	 3.624E+03	-4.575E+03	 5.326E+05	 3.302E+06	 8.767E+06	 1.836E+01	 7.606E-02
         2.6000	 0.000E+00	 1.590E+01	 8.660E+05	 0.000E+00	 0.000E+00	 0.000E+00	 8.700E+00	-1.080E-16	 7.022E-16	 1.314E+05	 3.611E+03	-4.568E+03	 5.201E+05	 3.587E+06	 8.641E+06	 1.822E+01	 7.537E-02
         2.6200	 0.000E+00	 1.590E+01	 8.450E+05	 0.000E+00	 0.000E+00	 0.000E+00	 8.700E+00	 1.385E-15	 3.826E-15	 1.315E+05	 3.597E+03	-4.558E+03	 5.075E+05	 3.869E+06	 8.509E+06	 1.809E+01	 7.467E-02
         2.6400	 0.000E+00	 1.590E+01	 8.232E+05	 0.000E+00	 0.000E+00	 0.000E+00	 8.700E+00	-2.295E-15	 3.395E-15	 1.315E+05	 3.588E+03	-4.544E+03	 4.944E+05	 4.144E+06	 8.365E+06	 1.795E+01	 7.389E-02
         2.6600	 0.000E+00	 1.590E+01	 8.006E+05	 0.000E+00	 0.000E+00	 0.000E+00	 8.700E+00	-1.810E-15	 3.708E-15	 1.313E+05	 3.585E+03	-4.537E+03	 4.808E+05	 4.404E+06	 8.201E+06	 1.790E+01	 7.221E-02
         2.6800	 0.000E+00	 1.590E+01	 7.795E+05	 0.000E+00	 0.000E+00	 0.000E+00	 8.700E+00	 2.883E-16	 6.341E-16	 1.314E+05	 3.566E+03	-4.526E+03	 4.682E+05	 4.677E+06	 8.045E+06	 1.805E+01	 6.920E-02
         2.7000	 0.000E+00	 1.590E+01	 7.571E+05	 0.000E+00	 0.000E+00	 0.000E+00	 8.700E+00	-8.191E-17	 1.969E-15	 1.315E+05	 3.555E+03	-4.510E+03	 4.547E+05	 4.939E+06	 7.877E+06	 1.818E+01	 6.619E-02
         2.7200	 0.000E+00	 1.590E+01	 7.337E+05	 0.000E+00	 0.000E+00	 0.000E+00	 8.700E+00	 2.050E-15	 2.283E-15	 1.313E+05	 3.553E+03	-4.497E+03	 4.406E+05	 5.183E+06	 7.689E+06	 1.832E+01	 6.320E-02
         2.7400	 0.000E+00	 1.590E+01	 7.113E+05	 0.000E+00	 0.000E+00	 0.000E+00	 8.700E+00	-2.735E-15	-6.017E-16	 1.314E+05	 3.540E+03	-4.480E+03	 4.272E+05	 5.435E+06	 7.505E+06	 1.845E+01	 6.040E-02
         2.7600	 0.000E+00	 1.590E+01	 6.889E+05	 0.000E+00	 0.000E+00	 0.000E+00	 8.700E+00	-1.817E-15	 1.665E-15	 1.315E+05	 3.526E+03	-4.462E+03	 4.137E+05	 5.681E+06	 7.312E+06	 1.858E+01	 5.771E-02
         2.7800	 0.000E+00	 1.590E+01	 6.664E+05	 0.000E+00	 0.000E+00	 0.000E+00	 8.700E+00	-3.506E-15	-1.013E-15	 1.316E+05	 3.512E+03	-4.444E+03	 4.002E+05	 5.922E+06	 7.112E+06	 1.870E+01	 5.510E-02
         2.8000	 0.000E+00	 1.590E+01	 6.432E+05	 0.000E+00	 0.000E+00	 0.000E+00	 8.700E+00	-2.662E-15	 4.971E-15	 1.316E+05	 3.505E+03	-4.424E+03	 3.863E+05	 6.148E+06	 6.899E+06	 1.882E+01	 5.252E-02
         2.8200	 0.000E+00	 1.590E+01	 6.185E+05	 0.000E+00	 0.000E+00	 0.000E+00	 8.700E+00	-4.956E-15	 3.704E-15	 1.315E+05	 3.509E+03	-4.404E+03	 3.715E+05	 6.356E+06	 6.671E+06	 1.893E+01	 4.990E-02
         2.8400	 0.000E+00	 1.590E+01	 5.968E+05	 0.000E+00	 0.000E+00	 0.000E+00	 8.700E+00	-2.011E-15	 1.634E-15	 1.318E+05	 3.490E+03	-4.380E+03	 3.584E+05	 6.587E+06	 6.455E+06	 1.904E+01	 4.760E-02
         2.8600	 0.000E+00	 1.590E+01	 5.746E+05	 0.000E+00	 0.000E+00	 0.000E+00	 8.700E+00	 5.547E-16	 3.309E-15	 1.318E+05	 3.475E+03	-4.361E+03	 3.451E+05	 6.797E+06	 6.223E+06	 1.914E+01	 4.533E-02
         2.8800	 0.000E+00	 1.590E+01	 5.502E+05	 0.000E+00	 0.000E+00	 0.000E+00	 8.700E+00	-4.753E-15	 4.342E-15	 1.318E+05	 3.477E+03	-4.335E+03	 3.305E+05	 6.987E+06	 5.978E+06	 1.924E+01	 4.296E-02