
Predictions were generated on 08-Oct-2019 at 10:29:59 using AeroDyn_Interface_Subs
 AeroDyn


     Time           	RtSpeed   	RtAeroFxh 	RtAeroFyh 	RtAeroFzh 	RtAeroMxh 	RtAeroMyh 	RtAeroMzh 	RtTSR     	RtAeroCp  	RtAeroPwr 
      (s)           	(rpm)     	(N)       	(N)       	(N)       	(N-m)     	(N-m)     	(N-m)     	(-)       	(-)       	(W)       
         0.0000	 1.130E+01	 5.937E+05	-1.175E-10	 5.960E-11	 3.101E+06	 3.420E-08	-2.183E-08	 7.450E+00	 4.816E-01	 3.671E+06
         0.0200	 1.130E+01	 5.937E+05	 1.699E-10	-1.130E-11	 3.101E+06	-3.230E-08	 1.288E-08	 7.449E+00	 4.815E-01	 3.670E+06
         0.0400	 1.130E+01	 5.676E+05	-2.114E-12	-2.539E-11	 2.938E+06	 1.511E-08	-1.563E-08	 7.446E+00	 4.559E-01	 3.476E+06
         0.0600	 1.130E+01	 5.686E+05	-1.089E-11	 2.630E-11	 2.942E+06	 3.394E-09	-3.105E-08	 7.448E+00	 4.567E-01	 3.481E+06
         0.0800	 1.130E+01	 5.678E+05	 1.896E-11	 4.571E-11	 2.939E+06	-1.901E-08	 1.805E-09	 7.448E+00	 4.562E-01	 3.478E+06
         0.1000	 1.130E+01	 5.678E+05	-8.668E-12	 1.568E-11	 2.939E+06	-1.322E-09	 8.598E-09	 7.447E+00	 4.562E-01	 3.477E+06
         0.1200	 1.130E+01	 5.682E+05	 2.933E-11	-5.175E-13	 2.940E+06	 9.882E-10	 3.622E-09	 7.448E+00	 4.565E-01	 3.480E+06
         0.1400	 1.130E+01	 5.679E+05	 4.863E-11	 7.302E-11	 2.939E+06	-9.506E-09	-2.579E-08	 7.448E+00	 4.563E-01	 3.478E+06
         0.1600	 1.130E+01	 5.680E+05	 4.038E-11	 6.635E-11	 2.940E+06	-6.600E-09	-1.960E-08	 7.447E+00	 4.563E-01	 3.478E+06
         0.1800	 1.130E+01	 5.680E+05	 3.217E-11	 3.771E-11	 2.940E+06	-2.547E-09	-5.166E-09	 7.448E+00	 4.564E-01	 3.479E+06
         0.2000	 1.130E+01	 5.679E+05	 1.634E-11	-4.885E-11	 2.940E+06	 1.927E-08	 1.834E-08	 7.447E+00	 4.563E-01	 3.478E+06
         0.2200	 1.130E+01	 5.680E+05	 1.327E-11	-4.118E-11	 2.940E+06	 9.416E-09	 1.002E-08	 7.447E+00	 4.563E-01	 3.478E+06
         0.2400	 1.130E+01	 5.680E+05	-1.216E-11	-4.572E-11	 2.940E+06	 1.558E-08	 1.680E-08	 7.447E+00	 4.563E-01	 3.479E+06
         0.2600	 1.130E+01	 5.680E+05	-2.947E-11	 9.364E-12	 2.940E+06	 5.394E-09	-2.224E-08	 7.447E+00	 4.563E-01	 3.478E+06
         0.2800	 1.130E+01	 5.680E+05	-2.720E-11	 1.320E-11	 2.940E+06	 2.420E-09	-8.712E-09	 7.447E+00	 4.563E-01	 3.478E+06
         0.3000	 1.130E+01	 5.680E+05	-3.420E-11	 3.596E-11	 2.940E+06	 1.007E-08	-1.168E-08	 7.447E+00	 4.563E-01	 3.478E+06
         0.3200	 1.130E+01	 5.680E+05	-3.607E-12	 3.276E-11	 2.940E+06	-4.494E-09	-1.219E-09	 7.447E+00	 4.563E-01	 3.478E+06
         0.3400	 1.130E+01	 5.680E+05	 3.864E-12	 2.999E-11	 2.940E+06	 3.879E-09	 1.386E-09	 7.447E+00	 4.563E-01	 3.478E+06
         0.3600	 1.130E+01	 5.679E+05	-3.251E-12	 2.145E-11	 2.940E+06	-5.301E-09	 2.405E-09	 7.447E+00	 4.563E-01	 3.478E+06
         0.3800	 1.130E+01	 5.679E+05	 5.595E-11	 1.339E-11	 2.940E+06	-1.881E-08	 4.943E-09	 7.447E+00	 4.563E-01	 3.478E+06
         0.4000	 1.130E+01	 5.679E+05	 3.856E-11	 3.339E-11	 2.940E+06	-9.006E-09	-2.678E-08	 7.447E+00	 4.563E-01	 3.478E+06
         0.4200	 1.130E+01	 5.679E+05	 1.481E-11	 2.921E-11	 2.940E+06	 4.078E-11	-1.909E-08	 7.447E+00	 4.563E-01	 3.478E+06
         0.4400	 1.130E+01	 5.679E+05	 7.839E-12	 3.744E-11	 2.940E+06	 1.378E-08	-1.649E-08	 7.447E+00	 4.563E-01	 3.478E+06
         0.4600	 1.130E+01	 5.679E+05	-2.523E-11	 1.102E-11	 2.940E+06	 1.163E-08	 8.201E-09	 7.446E+00	 4.563E-01	 3.478E+06
         0.4800	 1.130E+01	 5.679E+05	-3.125E-11	-1.636E-12	 2.940E+06	 8.168E-09	 2.521E-09	 7.446E+00	 4.563E-01	 3.478E+06
         0.5000	 1.130E+01	 5.679E+05	 9.531E-12	-1.517E-11	 2.940E+06	 4.300E-09	 6.087E-09	 7.446E+00	 4.563E-01	 3.478E+06
         0.5200	 1.130E+01	 5.679E+05	-1.997E-11	-6.607E-11	 2.940E+06	 1.921E-08	 1.265E-08	 7.446E+00	 4.563E-01	 3.478E+06
         0.5400	 1.130E+01	 5.679E+05	-4.727E-11	-5.673E-12	 2.940E+06	 9.035E-09	-2.063E-08	 7.446E+00	 4.563E-01	 3.478E+06
         0.5600	 1.130E+01	 5.679E+05	 1.504E-11	 2.518E-11	 2.940E+06	-3.354E-08	-1.990E-08	 7.446E+00	 4.563E-01	 3.478E+06
         0.5800	 1.130E+01	 5.679E+05	 4.392E-11	 3.927E-11	 2.940E+06	-4.579E-09	-1.551E-08	 7.446E+00	 4.563E-01	 3.478E+06
         0.6000	 1.130E+01	 5.679E+05	-2.621E-11	 2.253E-11	 2.940E+06	 2.265E-08	-4.727E-09	 7.446E+00	 4.563E-01	 3.478E+06
         0.6200	 1.130E+01	 5.679E+05	 2.084E-11	 2.040E-11	 2.940E+06	-9.207E-09	-4.775E-10	 7.446E+00	 4.563E-01	 3.478E+06
         0.6400	 1.130E+01	 5.679E+05	 5.510E-11	 7.986E-12	 2.940E+06	-6.520E-09	 1.513E-08	 7.446E+00	 4.563E-01	 3.478E+06
         0.6600	 1.130E+01	 5.679E+05	 5.793E-11	-1.132E-11	 2.940E+06	-1.832E-08	 8.973E-09	 7.446E+00	 4.563E-01	 3.478E+06
         0.6800	 1.130E+01	 5.679E+05	 5.341E-12	 1.019E-11	 2.940E+06	-1.821E-09	-2.631E-08	 7.445E+00	 4.563E-01	 3.478E+06
         0.7000	 1.130E+01	 5.679E+05	 6.634E-11	 4.608E-11	 2.940E+06	-2.848E-08	-1.855E-08	 7.445E+00	 4.563E-01	 3.478E+06
         0.7200	 1.130E+01	 5.679E+05	 5.407E-11	 3.765E-11	 2.940E+06	-4.992E-09	-1.551E-08	 7.445E+00	 4.563E-01	 3.478E+06
         0.7400	 1.130E+01	 5.679E+05	 4.286E-11	-1.162E-11	 2.940E+06	 6.673E-09	 7.993E-09	 7.445E+00	 4.563E-01	 3.478E+06
         0.7600	 1.130E+01	 5.679E+05	 4.820E-11	-3.140E-11	 2.941E+06	-1.524E-08	 8.702E-09	 7.445E+00	 4.563E-01	 3.478E+06
         0.7800	 1.130E+01	 5.679E+05	 1.968E-11	-7.916E-12	 2.941E+06	-2.929E-09	-1.156E-08	 7.445E+00	 4.563E-01	 3.478E+06
         0.8000	 1.130E+01	 5.678E+05	 3.012E-11	-2.314E-11	 2.941E+06	 2.167E-08	 8.153E-09	 7.445E+00	 4.563E-01	 3.478E+06
         0.8200	 1.130E+01	 5.678E+05	-1.451E-11	-4.963E-11	 2.941E+06	 1.012E-08	 1.653E-08	 7.445E+00	 4.563E-01	 3.478E+06
         0.8400	 1.129E+01	 5.678E+05	 3.707E-11	-2.362E-11	 2.941E+06	-2.537E-08	-5.403E-09	 7.445E+00	 4.563E-01	 3.478E+06
         0.8600	 1.129E+01	 5.678E+05	 2.312E-11	-2.821E-12	 2.941E+06	-5.663E-09	-6.782E-09	 7.445E+00	 4.563E-01	 3.478E+06
         0.8800	 1.129E+01	 5.678E+05	 1.210E-11	-3.507E-11	 2.941E+06	 1.721E-08	 1.116E-08	 7.444E+00	 4.563E-01	 3.478E+06
         0.9000	 1.129E+01	 5.678E+05	 2.116E-11	-3.818E-11	 2.941E+06	 5.889E-10	 8.587E-10	 7.444E+00	 4.563E-01	 3.478E+06
         0.9200	 1.129E+01	 5.678E+05	-2.226E-11	-2.808E-11	 2.941E+06	 1.112E-08	 6.873E-09	 7.444E+00	 4.563E-01	 3.478E+06
         0.9400	 1.129E+01	 5.678E+05	 3.725E-11	-3.435E-11	 2.941E+06	-1.869E-08	 1.051E-08	 7.444E+00	 4.563E-01	 3.478E+06
         0.9600	 1.129E+01	 5.678E+05	 1.157E-11	-5.079E-11	 2.941E+06	 1.481E-08	 7.910E-09	 7.444E+00	 4.563E-01	 3.478E+06
         0.9800	 1.129E+01	 5.678E+05	-1.837E-11	-3.977E-11	 2.941E+06	 1.462E-08	 8.411E-09	 7.444E+00	 4.563E-01	 3.478E+06
         1.0000	 1.129E+01	 5.678E+05	-3.354E-11	-3.335E-11	 2.941E+06	 1.341E-08	 1.151E-08	 7.444E+00	 4.563E-01	 3.478E+06
         1.0200	 1.129E+01	 5.678E+05	-7.738E-11	-2.170E-11	 2.941E+06	 2.491E-08	-1.044E-08	 7.444E+00	 4.563E-01	 3.478E+06
         1.0400	 1.129E+01	 5.678E+05	-5.337E-11	-7.326E-12	 2.941E+06	 1.758E-08	-1.057E-08	 7.444E+00	 4.563E-01	 3.478E+06
         1.0600	 1.129E+01	 5.678E+05	-1.108E-11	-3.043E-11	 2.941E+06	-5.571E-09	 5.034E-09	 7.443E+00	 4.563E-01	 3.478E+06
         1.0800	 1.129E+01	 5.678E+05	-4.945E-11	-1.873E-11	 2.941E+06	 2.318E-08	 6.997E-09	 7.443E+00	 4.563E-01	 3.478E+06
         1.1000	 1.129E+01	 5.678E+05	 5.995E-12	-2.854E-11	 2.941E+06	 1.074E-08	 1.359E-08	 7.443E+00	 4.563E-01	 3.478E+06
         1.1200	 1.129E+01	 5.678E+05	 2.681E-12	-4.059E-11	 2.941E+06	 4.513E-09	 4.973E-09	 7.443E+00	 4.563E-01	 3.478E+06
         1.1400	 1.129E+01	 5.678E+05	 7.728E-12	-9.443E-12	 2.941E+06	-8.209E-10	 3.634E-09	 7.443E+00	 4.563E-01	 3.478E+06
         1.1600	 1.129E+01	 5.678E+05	 2.251E-11	-2.887E-11	 2.941E+06	-1.607E-11	 1.425E-08	 7.443E+00	 4.563E-01	 3.478E+06
         1.1800	 1.129E+01	 5.678E+05	 2.888E-11	-1.706E-11	 2.941E+06	 3.182E-09	 3.399E-09	 7.443E+00	 4.563E-01	 3.478E+06
         1.2000	 1.129E+01	 5.678E+05	 2.096E-11	-4.097E-11	 2.941E+06	 3.043E-09	-1.420E-09	 7.443E+00	 4.563E-01	 3.478E+06
         1.2200	 1.129E+01	 5.677E+05	 5.144E-11	-7.370E-13	 2.941E+06	-1.874E-08	 6.986E-09	 7.443E+00	 4.563E-01	 3.478E+06
         1.2400	 1.129E+01	 5.677E+05	 5.133E-11	 1.633E-11	 2.941E+06	-1.980E-08	-7.683E-09	 7.442E+00	 4.563E-01	 3.478E+06
         1.2600	 1.129E+01	 5.677E+05	 6.744E-11	 2.367E-11	 2.942E+06	-1.596E-08	-1.063E-08	 7.442E+00	 4.563E-01	 3.478E+06
         1.2800	 1.129E+01	 5.677E+05	 5.457E-11	 1.767E-11	 2.942E+06	 2.789E-09	 1.581E-10	 7.442E+00	 4.563E-01	 3.478E+06
         1.3000	 1.129E+01	 5.677E+05	 3.806E-11	 4.895E-12	 2.942E+06	 4.838E-09	-5.431E-09	 7.442E+00	 4.563E-01	 3.478E+06
         1.3200	 1.129E+01	 5.677E+05	-2.075E-11	-1.838E-11	 2.942E+06	 3.647E-09	 8.416E-09	 7.442E+00	 4.563E-01	 3.478E+06
         1.3400	 1.129E+01	 5.677E+05	-8.185E-12	 1.172E-13	 2.942E+06	-2.049E-09	-1.301E-08	 7.442E+00	 4.563E-01	 3.478E+06
         1.3600	 1.129E+01	 5.677E+05	 2.649E-11	 2.634E-12	 2.942E+06	-6.085E-09	-7.009E-10	 7.442E+00	 4.563E-01	 3.478E+06
         1.3800	 1.129E+01	 5.677E+05	 3.612E-11	-4.961E-11	 2.942E+06	-3.736E-09	 2.262E-08	 7.442E+00	 4.563E-01	 3.478E+06
         1.4000	 1.129E+01	 5.677E+05	-4.097E-12	-7.998E-11	 2.942E+06	 2.423E-08	 1.008E-08	 7.442E+00	 4.563E-01	 3.478E+06
         1.4200	 1.129E+01	 5.677E+05	-1.882E-11	-8.922E-12	 2.942E+06	 8.448E-09	-8.419E-09	 7.442E+00	 4.563E-01	 3.478E+06
         1.4400	 1.129E+01	 5.677E+05	 3.576E-11	 1.358E-11	 2.942E+06	-8.093E-09	-8.000E-10	 7.441E+00	 4.563E-01	 3.478E+06
         1.4600	 1.129E+01	 5.677E+05	 4.427E-11	 1.512E-11	 2.942E+06	-8.689E-09	-4.288E-09	 7.441E+00	 4.563E-01	 3.478E+06
         1.4800	 1.129E+01	 5.677E+05	 4.234E-11	 2.188E-11	 2.942E+06	-9.996E-09	-1.333E-08	 7.441E+00	 4.563E-01	 3.478E+06
         1.5000	 1.129E+01	 5.677E+05	 3.458E-11	-3.422E-12	 2.942E+06	 1.506E-09	 7.297E-09	 7.441E+00	 4.563E-01	 3.478E+06
         1.5200	 1.129E+01	 5.677E+05	 2.502E-11	-2.072E-11	 2.942E+06	 7.054E-09	 9.840E-09	 7.441E+00	 4.563E-01	 3.478E+06
         1.5400	 1.129E+01	 5.677E+05	 3.795E-11	-3.601E-11	 2.942E+06	 8.604E-09	 3.564E-09	 7.441E+00	 4.563E-01	 3.478E+06
         1.5600	 1.129E+01	 5.677E+05	 3.215E-13	-2.655E-11	 2.942E+06	 5.688E-09	 1.301E-09	 7.441E+00	 4.563E-01	 3.478E+06
         1.5800	 1.129E+01	 5.677E+05	-1.376E-11	-2.622E-11	 2.942E+06	 2.143E-09	-6.504E-09	 7.441E+00	 4.563E-01	 3.478E+06
         1.6000	 1.129E+01	 5.677E+05	 7.047E-12	-6.183E-12	 2.942E+06	-2.212E-10	 8.909E-09	 7.441E+00	 4.563E-01	 3.478E+06
         1.6200	 1.129E+01	 5.677E+05	 8.078E-12	 9.600E-13	 2.942E+06	 2.955E-09	-8.981E-09	 7.440E+00	 4.563E-01	 3.478E+06
         1.6400	 1.129E+01	 5.677E+05	 3.884E-12	-3.661E-11	 2.942E+06	 1.798E-10	 6.920E-09	 7.440E+00	 4.563E-01	 3.478E+06
         1.6600	 1.129E+01	 5.676E+05	 5.236E-11	-1.381E-11	 2.942E+06	-1.383E-08	 3.713E-09	 7.440E+00	 4.563E-01	 3.478E+06
         1.6800	 1.129E+01	 5.676E+05	 2.265E-11	-1.399E-11	 2.942E+06	-1.228E-09	-4.752E-10	 7.440E+00	 4.563E-01	 3.478E+06
         1.7000	 1.129E+01	 5.676E+05	 2.958E-11	 2.226E-11	 2.942E+06	-2.980E-09	-1.685E-09	 7.440E+00	 4.563E-01	 3.478E+06
         1.7200	 1.129E+01	 5.676E+05	 6.670E-11	 1.546E-11	 2.943E+06	-2.114E-08	 5.361E-09	 7.440E+00	 4.563E-01	 3.478E+06
         1.7400	 1.129E+01	 5.676E+05	 5.976E-11	-1.931E-11	 2.943E+06	-6.738E-09	 3.570E-09	 7.440E+00	 4.563E-01	 3.478E+06
         1.7600	 1.129E+01	 5.676E+05	 5.209E-11	 1.668E-11	 2.943E+06	-4.468E-09	 2.504E-09	 7.440E+00	 4.563E-01	 3.478E+06
         1.7800	 1.129E+01	 5.676E+05	 2.968E-12	-2.712E-11	 2.943E+06	 9.914E-09	 6.036E-09	 7.440E+00	 4.563E-01	 3.478E+06
         1.8000	 1.129E+01	 5.676E+05	-1.541E-11	-4.185E-11	 2.943E+06	 1.152E-08	 1.257E-08	 7.440E+00	 4.563E-01	 3.478E+06
         1.8200	 1.129E+01	 5.676E+05	 7.365E-12	-4.839E-11	 2.943E+06	 6.287E-09	 9.241E-09	 7.439E+00	 4.563E-01	 3.478E+06
         1.8400	 1.129E+01	 5.676E+05	 1.185E-11	 1.392E-11	 2.943E+06	-3.754E-09	-4.197E-09	 7.439E+00	 4.563E-01	 3.478E+06
         1.8600	 1.129E+01	 5.676E+05	-1.337E-11	 1.873E-11	 2.943E+06	 9.850E-09	-4.864E-09	 7.439E+00	 4.563E-01	 3.478E+06
         1.8800	 1.129E+01	 5.676E+05	-1.666E-11	 8.157E-12	 2.943E+06	 2.561E-10	-2.540E-09	 7.439E+00	 4.563E-01	 3.478E+06
         1.9000	 1.129E+01	 5.676E+05	 9.930E-12	-7.970E-12	 2.943E+06	-2.685E-09	 3.350E-09	 7.439E+00	 4.563E-01	 3.478E+06
         1.9200	 1.129E+01	 5.676E+05	 8.780E-13	-1.025E-11	 2.943E+06	 1.006E-08	-3.600E-09	 7.439E+00	 4.563E-01	 3.478E+06
         1.9400	 1.129E+01	 5.676E+05	 8.497E-12	-1.236E-11	 2.943E+06	 1.082E-09	 6.500E-09	 7.439E+00	 4.563E-01	 3.478E+06
         1.9600	 1.129E+01	 5.676E+05	 8.595E-12	-2.284E-11	 2.943E+06	 2.060E-09	 1.079E-08	 7.439E+00	 4.563E-01	 3.478E+06
         1.9800	 1.129E+01	 5.676E+05	 3.594E-11	 5.667E-12	 2.943E+06	-1.044E-08	-6.738E-09	 7.439E+00	 4.563E-01	 3.478E+06
         2.0000	 1.129E+01	 5.676E+05	 2.341E-11	 2.808E-11	 2.943E+06	-4.664E-09	-5.885E-09	 7.439E+00	 4.563E-01	 3.478E+06
         2.0200	 1.129E+01	 5.676E+05	 2.242E-11	 5.589E-11	 2.943E+06	-4.742E-09	-1.401E-08	 7.438E+00	 4.563E-01	 3.478E+06
         2.0400	 1.129E+01	 5.676E+05	 2.466E-11	 4.885E-11	 2.943E+06	-7.479E-09	-9.802E-09	 7.438E+00	 4.563E-01	 3.478E+06
         2.0600	 1.129E+01	 5.676E+05	 1.149E-11	 1.456E-11	 2.943E+06	 1.903E-09	-5.108E-09	 7.438E+00	 4.563E-01	 3.478E+06
         2.0800	 1.129E+01	 5.676E+05	 1.977E-11	 1.605E-11	 2.943E+06	-1.046E-08	-1.891E-09	 7.438E+00	 4.563E-01	 3.478E+06
         2.1000	 1.128E+01	 5.675E+05	 1.753E-11	-4.838E-12	 2.943E+06	-5.560E-09	-1.944E-09	 7.438E+00	 4.563E-01	 3.478E+06
         2.1200	 1.128E+01	 5.675E+05	 5.844E-11	 2.494E-11	 2.943E+06	 2.339E-10	-5.031E-09	 7.438E+00	 4.563E-01	 3.478E+06
         2.1400	 1.128E+01	 5.675E+05	 2.175E-11	 1.967E-11	 2.943E+06	 9.308E-09	-3.042E-10	 7.438E+00	 4.563E-01	 3.478E+06
         2.1600	 1.128E+01	 5.675E+05	-1.111E-11	-1.613E-11	 2.943E+06	 4.660E-09	 1.317E-08	 7.438E+00	 4.563E-01	 3.478E+06
         2.1800	 1.128E+01	 5.675E+05	 1.587E-11	-1.149E-11	 2.944E+06	 2.488E-09	-3.937E-09	 7.438E+00	 4.563E-01	 3.478E+06
         2.2000	 1.128E+01	 5.675E+05	-9.341E-12	 3.682E-11	 2.944E+06	-1.686E-09	-1.893E-08	 7.438E+00	 4.563E-01	 3.478E+06
         2.2200	 1.128E+01	 5.675E+05	 5.378E-11	 3.053E-11	 2.944E+06	-7.859E-09	-1.248E-09	 7.437E+00	 4.563E-01	 3.478E+06
         2.2400	 1.128E+01	 5.675E+05	 3.003E-11	-2.517E-11	 2.944E+06	 6.393E-10	 6.685E-09	 7.437E+00	 4.563E-01	 3.478E+06
         2.2600	 1.128E+01	 5.675E+05	 3.934E-11	-5.348E-11	 2.944E+06	-2.571E-09	 1.331E-08	 7.437E+00	 4.563E-01	 3.478E+06
         2.2800	 1.128E+01	 5.675E+05	 3.925E-11	 1.067E-11	 2.944E+06	-3.953E-09	-1.118E-08	 7.437E+00	 4.563E-01	 3.478E+06
         2.3000	 1.128E+01	 5.675E+05	-2.638E-12	 1.477E-11	 2.944E+06	 1.120E-08	-1.131E-08	 7.437E+00	 4.563E-01	 3.478E+06
         2.3200	 1.128E+01	 5.675E+05	 7.052E-12	-1.677E-11	 2.944E+06	 4.565E-09	 5.961E-09	 7.437E+00	 4.563E-01	 3.478E+06
         2.3400	 1.128E+01	 5.675E+05	 3.616E-11	 2.485E-12	 2.944E+06	-1.421E-08	-4.584E-09	 7.437E+00	 4.563E-01	 3.478E+06
         2.3600	 1.128E+01	 5.675E+05	 2.504E-11	-1.020E-11	 2.944E+06	-9.855E-09	-5.590E-09	 7.437E+00	 4.563E-01	 3.478E+06
         2.3800	 1.128E+01	 5.675E+05	 2.350E-11	 1.566E-11	 2.944E+06	-4.377E-09	-7.387E-09	 7.437E+00	 4.563E-01	 3.478E+06
         2.4000	 1.128E+01	 5.675E+05	 3.754E-11	 7.949E-12	 2.944E+06	 1.339E-09	-7.388E-09	 7.437E+00	 4.563E-01	 3.478E+06
         2.4200	 1.128E+01	 5.675E+05	 2.002E-11	-1.696E-11	 2.944E+06	 4.218E-09	 2.182E-09	 7.436E+00	 4.563E-01	 3.478E+06
         2.4400	 1.128E+01	 5.675E+05	 1.056E-11	 2.767E-12	 2.944E+06	 7.207E-09	 1.889E-09	 7.436E+00	 4.563E-01	 3.478E+06
         2.4600	 1.128E+01	 5.675E+05	 1.602E-11	 1.127E-11	 2.944E+06	 5.914E-09	 3.316E-09	 7.436E+00	 4.563E-01	 3.478E+06
         2.4800	 1.128E+01	 5.675E+05	-4.635E-12	-3.074E-11	 2.944E+06	 6.184E-09	 2.264E-09	 7.436E+00	 4.563E-01	 3.478E+06
         2.5000	 1.128E+01	 5.675E+05	-1.338E-12	-2.246E-11	 2.944E+06	 5.721E-09	 4.864E-09	 7.436E+00	 4.563E-01	 3.478E+06
         2.5200	 1.128E+01	 5.675E+05	 2.147E-11	-1.861E-11	 2.944E+06	 2.457E-09	 2.288E-09	 7.436E+00	 4.563E-01	 3.478E+06
         2.5400	 1.128E+01	 5.675E+05	 5.811E-12	-2.858E-11	 2.944E+06	 7.941E-10	 1.051E-09	 7.436E+00	 4.563E-01	 3.478E+06
         2.5600	 1.128E+01	 5.675E+05	 3.155E-11	-3.693E-12	 2.944E+06	 2.063E-09	-1.637E-09	 7.436E+00	 4.563E-01	 3.478E+06
         2.5800	 1.128E+01	 5.675E+05	-6.084E-12	-3.343E-11	 2.944E+06	 1.796E-08	 8.184E-09	 7.436E+00	 4.563E-01	 3.478E+06
         2.6000	 1.128E+01	 5.675E+05	-3.144E-11	-2.035E-11	 2.944E+06	 7.998E-09	-7.862E-09	 7.436E+00	 4.563E-01	 3.478E+06
         2.6200	 1.128E+01	 5.674E+05	-1.261E-11	 1.766E-11	 2.944E+06	 4.856E-09	-4.449E-09	 7.436E+00	 4.563E-01	 3.478E+06
         2.6400	 1.128E+01	 5.674E+05	 2.128E-11	-1.777E-11	 2.945E+06	-2.924E-09	 6.462E-09	 7.435E+00	 4.563E-01	 3.478E+06
         2.6600	 1.128E+01	 5.674E+05	 6.224E-12	-4.004E-11	 2.945E+06	-9.147E-10	 4.660E-09	 7.435E+00	 4.563E-01	 3.478E+06
         2.6800	 1.128E+01	 5.674E+05	 5.988E-12	-4.747E-11	 2.945E+06	 8.946E-09	 3.483E-09	 7.435E+00	 4.563E-01	 3.479E+06
         2.7000	 1.128E+01	 5.674E+05	 1.341E-11	-4.075E-11	 2.945E+06	-1.017E-09	 7.512E-09	 7.435E+00	 4.563E-01	 3.479E+06
         2.7200	 1.128E+01	 5.674E+05	-9.596E-12	-4.306E-11	 2.945E+06	 3.646E-09	-1.206E-09	 7.435E+00	 4.563E-01	 3.479E+06
         2.7400	 1.128E+01	 5.674E+05	-1.077E-11	-5.377E-11	 2.945E+06	 1.790E-08	-8.312E-09	 7.435E+00	 4.563E-01	 3.479E+06
         2.7600	 1.128E+01	 5.674E+05	-4.018E-11	 8.579E-12	 2.945E+06	 4.057E-09	-5.187E-09	 7.435E+00	 4.563E-01	 3.479E+06
         2.7800	 1.128E+01	 5.674E+05	 3.405E-11	 9.723E-12	 2.945E+06	-1.382E-08	 2.023E-09	 7.435E+00	 4.563E-01	 3.479E+06
         2.8000	 1.128E+01	 5.674E+05	 1.300E-11	-4.281E-11	 2.945E+06	 2.327E-09	 8.106E-09	 7.435E+00	 4.563E-01	 3.479E+06
         2.8200	 1.128E+01	 5.674E+05	 2.330E-11	-2.308E-11	 2.945E+06	-1.975E-09	 1.177E-08	 7.435E+00	 4.563E-01	 3.479E+06
         2.8400	 1.128E+01	 5.674E+05	 3.315E-11	 3.892E-12	 2.945E+06	-4.149E-09	 2.818E-09	 7.435E+00	 4.563E-01	 3.479E+06
         2.8600	 1.128E+01	 5.674E+05	-2.926E-13	-7.419E-12	 2.945E+06	 2.070E-09	-7.218E-09	 7.434E+00	 4.563E-01	 3.479E+06
         2.8800	 1.128E+01	 5.674E+05	 1.086E-11	-3.307E-11	 2.945E+06	 5.294E-09	 5.324E-09	 7.434E+00	 4.563E-01	 3.479E+06
         2.9000	 1.128E+01	 5.674E+05	 1.726E-11	 6.283E-12	 2.945E+06	-1.684E-09	-2.416E-09	 7.434E+00	 4.563E-01	 3.479E+06
         2.9200	 1.128E+01	 5.674E+05	 8.795E-12	-4.103E-11	 2.945E+06	 5.129E-09	 2.266E-09	 7.434E+00	 4.563E-01	 3.479E+06
         2.9400	 1.128E+01	 5.674E+05	-3.916E-12	-1.404E-11	 2.945E+06	 6.538E-09	 4.630E-09	 7.434E+00	 4.563E-01	 3.479E+06
         2.9600	 1.128E+01	 5.674E+05	 2.042E-11	 1.567E-11	 2.945E+06	-3.374E-09	-5.698E-09	 7.434E+00	 4.563E-01	 3.479E+06
         2.9800	 1.128E+01	 5.674E+05	 2.619E-11	 9.093E-12	 2.945E+06	-1.211E-09	-5.176E-10	 7.434E+00	 4.563E-01	 3.479E+06
         3.0000	 1.128E+01	 5.674E+05	 1.396E-11	-2.974E-11	 2.945E+06	-4.632E-09	-1.053E-09	 7.434E+00	 4.563E-01	 3.479E+06
         3.0200	 1.128E+01	 5.674E+05	 1.394E-12	-1.664E-11	 2.945E+06	 5.929E-09	-2.711E-09	 7.434E+00	 4.563E-01	 3.479E+06
         3.0400	 1.128E+01	 5.674E+05	 2.190E-11	 5.534E-12	 2.945E+06	-7.794E-09	-1.389E-09	 7.434E+00	 4.563E-01	 3.479E+06
         3.0600	 1.128E+01	 5.674E+05	 3.077E-11	-1.177E-11	 2.945E+06	-5.176E-10	 8.649E-09	 7.434E+00	 4.563E-01	 3.479E+06
         3.0800	 1.128E+01	 5.674E+05	 3.143E-11	-8.865E-12	 2.945E+06	 1.937E-09	 5.309E-09	 7.433E+00	 4.563E-01	 3.479E+06
         3.1000	 1.128E+01	 5.674E+05	 3.272E-11	 2.121E-12	 2.945E+06	-7.760E-09	-7.350E-09	 7.433E+00	 4.563E-01	 3.479E+06
         3.1200	 1.128E+01	 5.674E+05	 2.095E-11	 5.539E-11	 2.945E+06	-6.503E-09	-2.221E-08	 7.433E+00	 4.563E-01	 3.479E+06
         3.1400	 1.128E+01	 5.674E+05	 2.230E-11	-5.665E-12	 2.945E+06	-3.298E-10	 1.318E-09	 7.433E+00	 4.563E-01	 3.479E+06
         3.1600	 1.128E+01	 5.674E+05	 4.998E-11	 5.747E-12	 2.946E+06	-6.233E-09	-2.846E-10	 7.433E+00	 4.563E-01	 3.479E+06
         3.1800	 1.128E+01	 5.674E+05	 8.429E-12	 1.186E-11	 2.946E+06	 1.378E-09	-1.012E-08	 7.433E+00	 4.563E-01	 3.479E+06
         3.2000	 1.128E+01	 5.673E+05	 5.111E-12	-8.357E-12	 2.946E+06	 3.711E-09	 6.527E-09	 7.433E+00	 4.563E-01	 3.479E+06
         3.2200	 1.128E+01	 5.673E+05	 3.637E-11	-7.821E-13	 2.946E+06	-3.689E-09	 1.710E-09	 7.433E+00	 4.564E-01	 3.479E+06
         3.2400	 1.128E+01	 5.673E+05	 1.899E-11	 1.735E-11	 2.946E+06	 6.209E-09	-1.114E-08	 7.433E+00	 4.564E-01	 3.479E+06
         3.2600	 1.128E+01	 5.673E+05	 2.228E-11	-4.816E-12	 2.946E+06	-2.418E-09	-5.295E-09	 7.433E+00	 4.564E-01	 3.479E+06
         3.2800	 1.128E+01	 5.673E+05	-2.548E-13	 5.139E-12	 2.946E+06	 6.773E-09	-3.620E-09	 7.433E+00	 4.564E-01	 3.479E+06
         3.3000	 1.128E+01	 5.673E+05	-2.905E-12	 1.279E-11	 2.946E+06	-1.670E-10	-6.263E-09	 7.433E+00	 4.564E-01	 3.479E+06
         3.3200	 1.128E+01	 5.673E+05	-1.413E-11	-6.464E-12	 2.946E+06	 1.167E-09	-6.418E-09	 7.433E+00	 4.564E-01	 3.479E+06
         3.3400	 1.128E+01	 5.673E+05	 3.163E-11	 3.535E-11	 2.946E+06	-7.425E-09	-8.405E-09	 7.432E+00	 4.564E-01	 3.479E+06
         3.3600	 1.128E+01	 5.673E+05	 5.677E-11	 2.598E-12	 2.946E+06	-1.138E-09	 4.006E-09	 7.432E+00	 4.564E-01	 3.479E+06
         3.3800	 1.128E+01	 5.673E+05	 3.530E-11	 2.594E-11	 2.946E+06	-5.436E-09	-2.267E-09	 7.432E+00	 4.564E-01	 3.479E+06
         3.4000	 1.128E+01	 5.673E+05	 6.501E-12	-1.352E-11	 2.946E+06	-3.637E-10	-3.934E-09	 7.432E+00	 4.564E-01	 3.479E+06
         3.4200	 1.128E+01	 5.673E+05	 2.329E-11	-1.194E-13	 2.946E+06	-3.362E-09	-3.255E-09	 7.432E+00	 4.564E-01	 3.479E+06
         3.4400	 1.128E+01	 5.673E+05	 2.914E-11	-1.448E-11	 2.946E+06	-3.776E-10	 2.048E-09	 7.432E+00	 4.564E-01	 3.479E+06
         3.4600	 1.128E+01	 5.673E+05	 3.509E-11	 7.264E-12	 2.946E+06	-4.910E-09	-7.535E-09	 7.432E+00	 4.564E-01	 3.479E+06
         3.4800	 1.128E+01	 5.673E+05	 1.297E-11	 1.326E-11	 2.946E+06	 2.045E-09	 1.959E-09	 7.432E+00	 4.564E-01	 3.479E+06
         3.5000	 1.128E+01	 5.673E+05	 2.640E-11	 1.278E-11	 2.946E+06	-1.003E-08	 3.487E-09	 7.432E+00	 4.564E-01	 3.479E+06
         3.5200	 1.128E+01	 5.673E+05	 2.979E-11	 1.406E-11	 2.946E+06	-6.590E-09	-3.507E-09	 7.432E+00	 4.564E-01	 3.479E+06
         3.5400	 1.128E+01	 5.673E+05	 4.399E-11	-2.488E-11	 2.946E+06	-8.984E-09	-3.082E-09	 7.432E+00	 4.564E-01	 3.479E+06
         3.5600	 1.128E+01	 5.673E+05	 3.603E-11	-5.047E-12	 2.946E+06	-7.254E-09	-6.131E-09	 7.432E+00	 4.564E-01	 3.479E+06
         3.5800	 1.128E+01	 5.673E+05	 2.945E-11	-9.261E-12	 2.946E+06	 5.492E-09	-4.489E-09	 7.431E+00	 4.564E-01	 3.479E+06
         3.6000	 1.127E+01	 5.673E+05	 3.083E-11	-1.322E-11	 2.946E+06	-4.508E-09	 1.128E-08	 7.431E+00	 4.564E-01	 3.479E+06
         3.6200	 1.127E+01	 5.673E+05	 2.524E-11	-8.052E-11	 2.946E+06	 8.939E-10	 1.581E-08	 7.431E+00	 4.564E-01	 3.479E+06
         3.6400	 1.127E+01	 5.673E+05	 2.059E-11	-1.088E-11	 2.946E+06	 2.339E-09	-3.046E-09	 7.431E+00	 4.564E-01	 3.479E+06
         3.6600	 1.127E+01	 5.673E+05	-1.494E-11	-4.535E-11	 2.946E+06	 1.432E-08	 6.827E-09	 7.431E+00	 4.564E-01	 3.479E+06
         3.6800	 1.127E+01	 5.673E+05	-7.213E-12	-6.628E-12	 2.946E+06	 3.573E-09	 6.336E-09	 7.431E+00	 4.564E-01	 3.479E+06
         3.7000	 1.127E+01	 5.673E+05	-1.715E-12	-6.049E-13	 2.946E+06	 6.768E-09	 4.114E-10	 7.431E+00	 4.564E-01	 3.479E+06
         3.7200	 1.127E+01	 5.673E+05	-1.924E-11	-4.072E-11	 2.947E+06	 5.042E-09	 5.564E-09	 7.431E+00	 4.564E-01	 3.479E+06
         3.7400	 1.127E+01	 5.673E+05	-2.892E-11	-4.888E-12	 2.947E+06	 7.047E-09	-8.005E-10	 7.431E+00	 4.564E-01	 3.479E+06
         3.7600	 1.127E+01	 5.673E+05	-9.212E-12	-2.140E-11	 2.947E+06	 5.052E-09	 6.218E-09	 7.431E+00	 4.564E-01	 3.479E+06
         3.7800	 1.127E+01	 5.673E+05	 7.931E-12	-2.427E-11	 2.947E+06	 1.583E-09	 5.195E-09	 7.431E+00	 4.564E-01	 3.479E+06
         3.8000	 1.127E+01	 5.673E+05	 3.910E-12	 1.579E-11	 2.947E+06	 4.063E-09	-9.587E-09	 7.431E+00	 4.564E-01	 3.479E+06
         3.8200	 1.127E+01	 5.673E+05	-1.034E-11	 5.352E-12	 2.947E+06	 1.242E-08	-3.660E-10	 7.431E+00	 4.564E-01	 3.479E+06
         3.8400	 1.127E+01	 5.672E+05	-7.890E-12	 1.339E-11	 2.947E+06	 7.016E-09	 3.122E-09	 7.431E+00	 4.564E-01	 3.479E+06
         3.8600	 1.127E+01	 5.672E+05	-4.499E-14	 3.679E-11	 2.947E+06	 3.234E-09	-8.930E-09	 7.430E+00	 4.564E-01	 3.479E+06
         3.8800	 1.127E+01	 5.672E+05	 8.073E-12	 2.303E-11	 2.947E+06	-4.251E-09	-1.087E-08	 7.430E+00	 4.564E-01	 3.479E+06
         3.9000	 1.127E+01	 5.672E+05	 2.452E-11	 2.813E-11	 2.947E+06	-4.793E-09	-7.985E-09	 7.430E+00	 4.564E-01	 3.479E+06
         3.9200	 1.127E+01	 5.672E+05	-2.881E-12	 3.627E-11	 2.947E+06	 1.080E-08	-6.616E-09	 7.430E+00	 4.564E-01	 3.479E+06
         3.9400	 1.127E+01	 5.672E+05	 9.179E-12	 1.509E-11	 2.947E+06	-2.790E-09	-1.555E-10	 7.430E+00	 4.564E-01	 3.479E+06
         3.9600	 1.127E+01	 5.672E+05	-5.012E-12	 1.440E-11	 2.947E+06	 3.121E-09	-1.015E-08	 7.430E+00	 4.564E-01	 3.479E+06
         3.9800	 1.127E+01	 5.672E+05	 3.092E-11	 2.613E-13	 2.947E+06	-4.656E-10	-3.934E-12	 7.430E+00	 4.564E-01	 3.479E+06
         4.0000	 1.127E+01	 5.672E+05	 3.326E-11	-2.597E-11	 2.947E+06	-3.612E-09	 7.506E-09	 7.430E+00	 4.564E-01	 3.479E+06
         4.0200	 1.127E+01	 5.672E+05	 2.565E-11	-1.920E-11	 2.947E+06	 3.149E-09	-2.918E-09	 7.430E+00	 4.564E-01	 3.479E+06
         4.0400	 1.127E+01	 5.672E+05	-7.943E-12	 1.872E-11	 2.947E+06	 3.021E-09	-3.921E-09	 7.430E+00	 4.564E-01	 3.479E+06
         4.0600	 1.127E+01	 5.672E+05	 3.451E-11	-2.854E-11	 2.947E+06	-8.415E-09	 5.399E-09	 7.430E+00	 4.564E-01	 3.479E+06
         4.0800	 1.127E+01	 5.672E+05	 4.433E-11	-3.782E-11	 2.947E+06	-8.285E-09	 5.596E-09	 7.430E+00	 4.564E-01	 3.479E+06
         4.1000	 1.127E+01	 5.672E+05	 4.115E-11	 9.169E-12	 2.947E+06	-9.635E-09	-5.286E-09	 7.430E+00	 4.564E-01	 3.479E+06
         4.1200	 1.127E+01	 5.672E+05	 2.106E-11	-3.279E-11	 2.947E+06	 2.398E-09	 6.221E-09	 7.430E+00	 4.564E-01	 3.479E+06
         4.1400	 1.127E+01	 5.672E+05	-9.726E-13	-2.941E-11	 2.947E+06	 9.545E-09	 1.341E-08	 7.430E+00	 4.564E-01	 3.479E+06
         4.1600	 1.127E+01	 5.672E+05	-1.847E-11	-7.324E-12	 2.947E+06	 9.466E-09	-4.812E-09	 7.429E+00	 4.564E-01	 3.479E+06
         4.1800	 1.127E+01	 5.672E+05	 8.550E-12	 5.488E-12	 2.947E+06	-3.773E-09	-3.906E-09	 7.429E+00	 4.564E-01	 3.479E+06
         4.2000	 1.127E+01	 5.672E+05	 2.760E-11	 4.184E-12	 2.947E+06	-6.303E-09	 3.541E-09	 7.429E+00	 4.564E-01	 3.479E+06
         4.2200	 1.127E+01	 5.672E+05	 1.399E-11	-2.662E-11	 2.947E+06	-2.885E-09	 1.781E-09	 7.429E+00	 4.564E-01	 3.479E+06
         4.2400	 1.127E+01	 5.672E+05	 3.142E-12	 2.568E-11	 2.947E+06	 7.362E-10	-3.150E-09	 7.429E+00	 4.564E-01	 3.479E+06
         4.2600	 1.127E+01	 5.672E+05	 2.160E-12	 1.078E-11	 2.947E+06	 3.902E-09	 6.614E-10	 7.429E+00	 4.564E-01	 3.479E+06
         4.2800	 1.127E+01	 5.672E+05	 3.474E-12	-5.118E-12	 2.947E+06	-4.522E-09	-4.311E-09	 7.429E+00	 4.564E-01	 3.479E+06
         4.3000	 1.127E+01	 5.672E+05	 2.324E-11	-1.680E-11	 2.947E+06	 1.597E-09	-3.614E-09	 7.429E+00	 4.564E-01	 3.479E+06
         4.3200	 1.127E+01	 5.672E+05	 1.402E-11	-1.369E-11	 2.947E+06	 6.395E-10	 2.759E-09	 7.429E+00	 4.564E-01	 3.479E+06
         4.3400	 1.127E+01	 5.672E+05	 2.380E-11	 1.334E-11	 2.947E+06	-3.047E-09	-1.707E-09	 7.429E+00	 4.564E-01	 3.479E+06
         4.3600	 1.127E+01	 5.672E+05	 2.576E-11	 1.200E-11	 2.947E+06	-6.811E-09	-7.087E-09	 7.429E+00	 4.564E-01	 3.479E+06
         4.3800	 1.127E+01	 5.672E+05	 1.139E-11	-9.762E-12	 2.948E+06	 3.332E-09	-6.249E-10	 7.429E+00	 4.564E-01	 3.479E+06
         4.4000	 1.127E+01	 5.672E+05	 2.591E-11	-5.495E-12	 2.948E+06	-3.034E-09	 1.608E-09	 7.429E+00	 4.564E-01	 3.479E+06
         4.4200	 1.127E+01	 5.672E+05	 1.351E-11	-2.426E-11	 2.948E+06	-2.000E-10	-2.023E-09	 7.429E+00	 4.564E-01	 3.479E+06
         4.4400	 1.127E+01	 5.672E+05	 1.623E-11	-1.152E-12	 2.948E+06	-2.087E-10	-3.123E-09	 7.429E+00	 4.564E-01	 3.479E+06
         4.4600	 1.127E+01	 5.672E+05	 2.662E-11	-2.949E-11	 2.948E+06	-1.829E-09	 5.534E-09	 7.428E+00	 4.564E-01	 3.479E+06
         4.4800	 1.127E+01	 5.672E+05	 4.956E-12	 1.416E-11	 2.948E+06	-1.996E-09	-9.166E-10	 7.428E+00	 4.564E-01	 3.479E+06
         4.5000	 1.127E+01	 5.672E+05	 4.152E-11	 3.763E-11	 2.948E+06	-4.195E-09	-7.290E-09	 7.428E+00	 4.564E-01	 3.479E+06
         4.5200	 1.127E+01	 5.671E+05	 6.421E-12	 8.826E-12	 2.948E+06	 6.855E-09	-3.835E-09	 7.428E+00	 4.564E-01	 3.479E+06
         4.5400	 1.127E+01	 5.671E+05	 4.241E-11	 2.254E-11	 2.948E+06	-7.740E-09	-1.117E-09	 7.428E+00	 4.564E-01	 3.479E+06
         4.5600	 1.127E+01	 5.671E+05	-5.081E-12	 2.273E-11	 2.948E+06	 2.065E-09	-5.239E-09	 7.428E+00	 4.564E-01	 3.479E+06
         4.5800	 1.127E+01	 5.671E+05	 3.061E-11	-2.577E-11	 2.948E+06	 4.377E-09	 4.837E-09	 7.428E+00	 4.564E-01	 3.479E+06
         4.6000	 1.127E+01	 5.671E+05	 3.322E-11	 4.641E-12	 2.948E+06	 6.869E-10	-3.091E-09	 7.428E+00	 4.564E-01	 3.479E+06
         4.6200	 1.127E+01	 5.671E+05	 5.931E-13	-1.542E-11	 2.948E+06	 7.606E-09	-6.961E-10	 7.428E+00	 4.564E-01	 3.479E+06
         4.6400	 1.127E+01	 5.671E+05	-2.042E-11	-1.059E-11	 2.948E+06	 1.170E-08	-9.789E-10	 7.428E+00	 4.564E-01	 3.479E+06
         4.6600	 1.127E+01	 5.671E+05	-4.140E-12	-3.212E-11	 2.948E+06	-1.609E-09	 4.295E-09	 7.428E+00	 4.564E-01	 3.479E+06
         4.6800	 1.127E+01	 5.671E+05	 9.207E-12	 6.136E-12	 2.948E+06	 3.312E-09	 5.516E-10	 7.428E+00	 4.564E-01	 3.479E+06